A-SYNC WITH LIG-47 in water
35301
  121NASP     N    1   0.885   4.915   4.631  0.0099  0.3517  0.3952
  121NASP    H1    2   0.869   4.907   4.532  0.5035  0.3068  0.3160
  121NASP    H2    3   0.937   4.998   4.657 -0.7444  0.8380  0.3825
  121NASP    H3    4   0.799   4.937   4.679  1.1955  0.4456  2.6257
  121NASP    CA    5   0.947   4.791   4.689 -0.5002  0.2261 -0.4770
  121NASP    HA    6   1.055   4.791   4.670 -0.3575 -0.9032  0.2365
  121NASP    CB    7   0.956   4.790   4.848 -0.4850 -0.1461  0.0446
  121NASP   HB1    8   1.032   4.720   4.883 -1.2984 -0.4559  1.2071
  121NASP   HB2    9   0.863   4.751   4.888  0.1064  0.3742  2.0638
  121NASP    CG   10   0.983   4.928   4.912 -0.2706 -0.5393  0.4430
  121NASP   OD1   11   0.994   4.936   5.036  0.5239 -0.6334  0.0693
  121NASP   OD2   12   0.998   5.025   4.834  0.1361 -0.4380  0.7083
  121NASP     C   13   0.882   4.664   4.636 -0.5144  0.6282  0.3590
  121NASP     O   14   0.776   4.620   4.680  0.2064  0.2154  0.1129
  122ASN      N   15   0.949   4.597   4.542  0.2246 -0.8657 -0.0539
  122ASN      H   16   1.034   4.643   4.513 -0.3101 -0.5252 -1.1533
  122ASN     CA   17   0.904   4.478   4.468  0.0739 -0.2187  0.2266
  122ASN     HA   18   0.805   4.500   4.426  0.5349  0.7015 -0.4266
  122ASN     CB   19   0.997   4.448   4.346  0.2997  0.0394  0.3236
  122ASN    HB1   20   0.959   4.361   4.293 -0.0340  0.8247 -0.7662
  122ASN    HB2   21   1.101   4.439   4.379 -0.1636  1.1898  2.2930
  122ASN     CG   22   0.997   4.564   4.241  0.4316  1.1154  0.2111
  122ASN    OD1   23   0.897   4.632   4.223  0.0521 -0.7056  0.2612
  122ASN    ND2   24   1.109   4.574   4.167  0.1639  0.5757  0.0127
  122ASN   HD21   25   1.122   4.651   4.102 -1.1447 -0.0780 -1.0832
  122ASN   HD22   26   1.184   4.510   4.186 -0.8312 -0.7626 -0.3801
  122ASN      C   27   0.887   4.361   4.558 -0.2952 -0.3826 -0.2675
  122ASN      O   28   0.971   4.351   4.654 -0.1013 -0.9680  0.3035
  123GLU      N   29   0.787   4.277   4.537 -0.6444  0.3615  0.1851
  123GLU      H   30   0.727   4.307   4.461 -0.3306  1.8224  0.4845
  123GLU     CA   31   0.739   4.163   4.617  0.2104  0.1022 -0.3671
  123GLU     HA   32   0.778   4.163   4.719 -0.9970 -0.1546  0.1113
  123GLU     CB   33   0.583   4.175   4.622 -0.2218 -0.3386 -0.0024
  123GLU    HB1   34   0.573   4.279   4.655  1.7946 -0.4954  1.2980
  123GLU    HB2   35   0.543   4.109   4.699 -1.0719 -0.1787 -0.3017
  123GLU     CG   36   0.497   4.145   4.499  0.1225  0.1143  0.1989
  123GLU    HG1   37   0.508   4.041   4.468  3.8321  0.4923 -0.1788
  123GLU    HG2   38   0.528   4.207   4.416  2.0357 -1.6936 -0.5135
  123GLU     CD   39   0.348   4.167   4.526  0.2580  0.6386 -0.2010
  123GLU    OE1   40   0.313   4.200   4.642  0.3470  0.4773  0.0197
  123GLU    OE2   41   0.276   4.187   4.425 -0.3786  0.8433  0.0166
  123GLU      C   42   0.774   4.026   4.561 -0.3983  0.1963  0.3020
  123GLU      O   43   0.832   3.949   4.630 -0.1449 -0.3475  0.2421
  124ALA      N   44   0.746   4.001   4.435  0.1487  0.3847 -0.0656
  124ALA      H   45   0.718   4.080   4.378  1.2529  0.6096 -0.3382
  124ALA     CA   46   0.753   3.867   4.376  0.4539 -0.1909  0.0987
  124ALA     HA   47   0.780   3.793   4.452 -2.3862 -1.3606  0.0965
  124ALA     CB   48   0.626   3.826   4.304 -0.6263 -1.0273  0.1891
  124ALA    HB1   49   0.591   3.892   4.224 -0.0314 -0.6798  0.2046
  124ALA    HB2   50   0.545   3.809   4.374 -1.6780  0.9844 -0.4748
  124ALA    HB3   51   0.641   3.734   4.247 -3.6736 -2.2951  1.2782
  124ALA      C   52   0.873   3.856   4.282  0.1846 -0.1523  0.2999
  124ALA      O   53   0.964   3.780   4.314 -0.0752 -0.3841  0.0437
  125TYR      N   54   0.880   3.944   4.179  0.3328 -0.1223 -0.4148
  125TYR      H   55   0.801   4.004   4.160 -0.7816 -1.0495  1.0886
  125TYR     CA   56   0.974   3.937   4.066  0.1390  0.2119 -0.4826
  125TYR     HA   57   0.982   3.830   4.048 -1.6472 -0.0085 -0.2267
  125TYR     CB   58   0.904   3.992   3.945  0.4095 -0.7815 -0.1986
  125TYR    HB1   59   0.970   3.987   3.859  2.3718  1.0306  1.1013
  125TYR    HB2   60   0.887   4.100   3.954  0.3215 -0.8823  1.0810
  125TYR     CG   61   0.771   3.933   3.902  0.5604  0.4716 -0.1854
  125TYR    CD1   62   0.682   4.008   3.827 -0.1585 -0.0892  0.2623
  125TYR    HD1   63   0.711   4.108   3.797  0.7675 -0.2976  0.4386
  125TYR    CE1   64   0.556   3.956   3.792  0.2403  0.4793  0.1864
  125TYR    HE1   65   0.488   4.015   3.732  2.0477  2.6987  0.2069
  125TYR     CZ   66   0.517   3.827   3.842 -0.0355 -0.3811  0.0769
  125TYR     OH   67   0.397   3.784   3.801 -0.0219 -0.0621  0.1803
  125TYR     HH   68   0.393   3.693   3.831  1.8480 -0.4761 -0.6757
  125TYR    CE2   69   0.599   3.748   3.923  0.0578 -0.0068  0.1139
  125TYR    HE2   70   0.571   3.651   3.960 -2.4758  0.9328  0.8507
  125TYR    CD2   71   0.728   3.805   3.949 -0.0666  0.0289  0.4722
  125TYR    HD2   72   0.787   3.754   4.024 -2.5510 -1.5453  1.4602
  125TYR      C   73   1.124   3.981   4.086 -0.4318  0.4227  0.1666
  125TYR      O   74   1.202   4.021   3.998 -0.4240 -0.0112  0.3742
  126GLU      N   75   1.171   3.988   4.213  0.7126  0.1348  0.7049
  126GLU      H   76   1.115   3.938   4.280  1.4295 -3.7368 -1.2961
  126GLU     CA   77   1.304   4.012   4.252  0.1087 -0.5207  0.2682
  126GLU     HA   78   1.339   4.113   4.231 -0.3008 -0.2025  1.0746
  126GLU     CB   79   1.300   3.990   4.404  0.5983  0.2648  0.2031
  126GLU    HB1   80   1.404   4.002   4.435  0.7849  0.1495 -0.3809
  126GLU    HB2   81   1.263   3.889   4.422 -2.1084  0.9873 -0.8079
  126GLU     CG   82   1.210   4.083   4.482 -0.3515 -0.6780 -1.4448
  126GLU    HG1   83   1.108   4.045   4.483 -1.2166  1.3491  1.2363
  126GLU    HG2   84   1.207   4.181   4.433 -1.8663  1.8785  3.1168
  126GLU     CD   85   1.269   4.089   4.625 -0.2283 -0.6180  0.5085
  126GLU    OE1   86   1.269   3.984   4.694 -0.4964 -0.1451 -0.6093
  126GLU    OE2   87   1.324   4.196   4.670 -0.1713  0.0603 -0.8014
  126GLU      C   88   1.400   3.914   4.194  0.0336  0.2764 -0.1177
  126GLU      O   89   1.517   3.946   4.175  0.6889  0.5995  0.0104
  127MET      N   90   1.349   3.787   4.178 -0.0857 -0.3879  0.0206
  127MET      H   91   1.257   3.771   4.217  0.0168  0.7335  0.7457
  127MET     CA   92   1.408   3.672   4.112 -0.9332 -0.1097  0.3710
  127MET     HA   93   1.509   3.702   4.082 -0.6870  0.7803  1.9641
  127MET     CB   94   1.448   3.564   4.210 -1.1514  0.2236  0.1009
  127MET    HB1   95   1.512   3.490   4.162 -0.3471  0.8712  0.1424
  127MET    HB2   96   1.351   3.526   4.240 -1.4723  0.6366 -0.4017
  127MET     CG   97   1.541   3.625   4.317 -0.2526  0.3387 -0.0022
  127MET    HG1   98   1.482   3.680   4.391 -0.6000  0.3228 -0.2646
  127MET    HG2   99   1.598   3.705   4.270  1.4223  0.8410  2.6960
  127MET     SD  100   1.652   3.518   4.406  0.2552 -0.0607  0.1038
  127MET     CE  101   1.555   3.448   4.546  0.5370 -0.2810  0.0592
  127MET    HE1  102   1.543   3.340   4.537 -3.1268  0.0959 -0.9571
  127MET    HE2  103   1.457   3.495   4.541  0.9669  0.8178  1.3167
  127MET    HE3  104   1.601   3.479   4.640 -0.5913 -1.1943  0.9378
  127MET      C  105   1.315   3.627   4.000 -0.1786 -0.0102 -0.4215
  127MET      O  106   1.194   3.633   4.016  0.2246  0.0097  0.1277
  128PRO      N  107   1.379   3.568   3.894  0.0578  0.1642  0.2780
  128PRO     CD  108   1.526   3.541   3.883  0.3194 -0.2063  0.7833
  128PRO    HD1  109   1.562   3.484   3.968 -0.2620 -0.0584  1.1328
  128PRO    HD2  110   1.575   3.635   3.859 -0.9492  0.7834  1.9681
  128PRO     CG  111   1.547   3.455   3.756  0.5673 -0.4526 -0.2073
  128PRO    HG1  112   1.518   3.352   3.774 -3.0216  0.2120 -1.2766
  128PRO    HG2  113   1.648   3.462   3.716  1.1307  0.2873  1.2573
  128PRO     CB  114   1.439   3.517   3.668  0.8692 -0.1563  0.0525
  128PRO    HB1  115   1.479   3.610   3.627 -2.1939  1.1422 -0.2779
  128PRO    HB2  116   1.399   3.451   3.591 -1.2145  2.1042 -0.9467
  128PRO     CA  117   1.320   3.543   3.763 -0.1303  0.4246 -0.1652
  128PRO     HA  118   1.276   3.636   3.725  2.5568  1.3249 -1.3583
  128PRO      C  119   1.209   3.429   3.772 -0.3153 -0.6898  0.3475
  128PRO      O  120   1.216   3.339   3.852 -0.9744  0.0096 -0.1730
  129SER      N  121   1.090   3.459   3.717 -0.7894  1.0925  0.4827
  129SER      H  122   1.092   3.544   3.663 -2.6072  0.4545 -0.7028
  129SER     CA  123   0.963   3.391   3.721 -0.4189  0.3183 -0.7130
  129SER     HA  124   0.973   3.303   3.785  1.5705  0.3508 -0.9247
  129SER     CB  125   0.858   3.478   3.791  0.0204  0.0201 -0.3471
  129SER    HB1  126   0.822   3.565   3.736  0.0270  0.0359 -0.3266
  129SER    HB2  127   0.909   3.505   3.884 -2.1037  0.1067  0.8569
  129SER     OG  128   0.744   3.399   3.838  0.2008 -0.3240  0.7153
  129SER    HG1  129   0.729   3.420   3.930  1.5397  0.1104  0.8523
  129SER      C  130   0.919   3.346   3.581  0.2550 -0.1775 -0.0383
  129SER      O  131   0.924   3.427   3.485  0.1900 -0.1189 -0.5273
  130GLU      N  132   0.837   3.237   3.582  0.0149 -0.6085  0.2369
  130GLU      H  133   0.837   3.180   3.666  0.6616 -2.6895 -1.1173
  130GLU     CA  134   0.749   3.206   3.478  0.0731  0.5464 -0.2311
  130GLU     HA  135   0.797   3.223   3.381 -0.2971 -0.1183 -0.5401
  130GLU     CB  136   0.733   3.053   3.475 -0.1264 -0.0030 -0.0722
  130GLU    HB1  137   0.680   3.035   3.382  2.0700  2.9456 -2.0665
  130GLU    HB2  138   0.671   3.019   3.558 -0.0425 -3.5018 -1.2757
  130GLU     CG  139   0.859   2.960   3.466  0.4275 -0.1066 -0.1449
  130GLU    HG1  140   0.920   2.991   3.551 -2.1978 -1.0540  2.2756
  130GLU    HG2  141   0.907   2.985   3.372 -0.9005 -2.6529 -1.6174
  130GLU     CD  142   0.839   2.806   3.469  0.2931 -0.2087 -0.4127
  130GLU    OE1  143   0.938   2.733   3.460 -0.2585 -0.2531  0.2485
  130GLU    OE2  144   0.724   2.761   3.468 -0.0120 -0.3001 -0.0585
  130GLU      C  145   0.606   3.271   3.487  0.1033  0.6656 -0.3764
  130GLU      O  146   0.534   3.285   3.387 -0.4051  0.0154  0.3453
  131GLU      N  147   0.569   3.322   3.607  1.0210  0.0781 -0.2666
  131GLU      H  148   0.627   3.309   3.688 -1.1350  3.8035  2.1266
  131GLU     CA  149   0.461   3.412   3.627  0.1794 -0.1303  0.4381
  131GLU     HA  150   0.373   3.369   3.579 -1.1549  1.0550  1.7444
  131GLU     CB  151   0.420   3.429   3.771  0.1559  0.3673 -0.5714
  131GLU    HB1  152   0.325   3.483   3.773 -0.2808 -0.3936  1.2757
  131GLU    HB2  153   0.495   3.485   3.826  0.8070 -0.6615 -0.3991
  131GLU     CG  154   0.399   3.296   3.845  0.6949 -0.5259  0.0981
  131GLU    HG1  155   0.496   3.246   3.849  0.1921 -1.4819  0.9246
  131GLU    HG2  156   0.341   3.235   3.776 -0.0603  0.0488  0.2169
  131GLU     CD  157   0.325   3.300   3.979  0.0212 -0.1764 -0.4516
  131GLU    OE1  158   0.323   3.395   4.061  0.8560  0.8946  0.3388
  131GLU    OE2  159   0.252   3.200   4.004 -0.1219 -0.6876  0.3542
  131GLU      C  160   0.480   3.550   3.558  0.0012 -0.0194 -0.5618
  131GLU      O  161   0.382   3.597   3.498 -0.1421  0.1378  0.6733
  132GLY      N  162   0.598   3.612   3.561  0.2787 -0.2558  0.1933
  132GLY      H  163   0.654   3.581   3.638 -2.2468 -2.3443  1.3507
  132GLY     CA  164   0.611   3.760   3.516  0.1803  0.4041  0.0475
  132GLY    HA1  165   0.535   3.830   3.552 -0.2652 -1.1890  2.4463
  132GLY    HA2  166   0.598   3.766   3.408 -1.1612  1.8318  0.2667
  132GLY      C  167   0.750   3.816   3.544  0.2989  0.2134  0.2409
  132GLY      O  168   0.840   3.739   3.581 -0.3585 -0.2248 -0.2417
  133TYR      N  169   0.773   3.936   3.500 -0.3816 -0.1539 -0.1463
  133TYR      H  170   0.699   3.992   3.461 -0.0193  0.8251  0.5291
  133TYR     CA  171   0.917   3.984   3.472  0.9470 -0.6017 -0.4158
  133TYR     HA  172   0.984   3.933   3.540  0.4317  0.9115  1.2958
  133TYR     CB  173   0.967   3.948   3.332  0.2364  0.5427 -0.1227
  133TYR    HB1  174   0.963   3.839   3.329  1.1260  0.3128  3.1042
  133TYR    HB2  175   1.072   3.976   3.323  1.2320 -2.2018  1.6373
  133TYR     CG  176   0.877   4.002   3.223 -0.2060 -0.5860  0.7848
  133TYR    CD1  177   0.771   3.929   3.168  0.4964 -0.2701  1.0358
  133TYR    HD1  178   0.746   3.835   3.214 -0.0384 -0.6833 -0.0579
  133TYR    CE1  179   0.690   3.978   3.061  0.8154 -0.5013  0.5269
  133TYR    HE1  180   0.606   3.924   3.021 -1.3933  2.6653  0.4607
  133TYR     CZ  181   0.718   4.106   3.000 -0.1689 -0.5778 -0.1388
  133TYR     OH  182   0.642   4.157   2.904  0.0904 -0.2272  0.4896
  133TYR     HH  183   0.567   4.101   2.882  1.1779 -0.8943 -1.9213
  133TYR    CE2  184   0.824   4.184   3.065  0.9289 -0.3917 -0.2025
  133TYR    HE2  185   0.844   4.282   3.023  0.9128 -0.6904 -0.9240
  133TYR    CD2  186   0.901   4.127   3.169  0.2209 -0.3120 -0.5747
  133TYR    HD2  187   0.995   4.173   3.196  0.6222 -0.9243 -0.8966
  133TYR      C  188   0.912   4.140   3.502  0.2834 -0.1065  0.1804
  133TYR      O  189   0.805   4.202   3.510 -0.2861 -0.3868 -0.2218
  134GLN      N  190   1.031   4.201   3.524 -0.2925 -0.0625 -0.1086
  134GLN      H  191   1.111   4.140   3.517 -0.0158  0.2877 -0.0685
  134GLN     CA  192   1.061   4.348   3.556 -0.0358 -0.0534  0.0924
  134GLN     HA  193   0.979   4.384   3.619  0.7964  0.4269  0.9264
  134GLN     CB  194   1.203   4.368   3.611  0.8479 -0.8038  0.4491
  134GLN    HB1  195   1.228   4.474   3.617 -1.6981 -0.1712  1.3951
  134GLN    HB2  196   1.279   4.309   3.561  1.2649  0.1265 -0.0303
  134GLN     CG  197   1.194   4.320   3.756  0.9045 -0.2458  0.0928
  134GLN    HG1  198   1.164   4.216   3.763 -0.8242  0.2435  0.5141
  134GLN    HG2  199   1.114   4.378   3.803  1.3466 -0.3440  0.9817
  134GLN     CD  200   1.318   4.347   3.829 -0.0474 -0.3261 -0.4824
  134GLN    OE1  201   1.407   4.422   3.798 -0.2217 -0.0711 -0.5113
  134GLN    NE2  202   1.328   4.298   3.952 -0.5097 -0.3801 -0.1097
  134GLN   HE21  203   1.415   4.321   3.999 -1.4737 -0.7549  1.9715
  134GLN   HE22  204   1.269   4.222   3.984 -1.8864 -0.1668 -1.9622
  134GLN      C  205   1.051   4.425   3.424 -0.8003  0.1174 -0.1118
  134GLN      O  206   1.144   4.427   3.345 -0.0548  0.0584  0.2937
  135ASP      N  207   0.930   4.478   3.396  0.6268  0.2576 -0.3768
  135ASP      H  208   0.865   4.472   3.473  0.5149  2.7862 -0.1889
  135ASP     CA  209   0.885   4.544   3.276  0.1904  0.3153  0.6230
  135ASP     HA  210   0.925   4.493   3.188 -1.1119  1.7057 -0.8448
  135ASP     CB  211   0.731   4.532   3.277 -0.3783  0.3056 -0.2925
  135ASP    HB1  212   0.711   4.425   3.266  2.1154 -0.2800  0.3506
  135ASP    HB2  213   0.689   4.591   3.195 -2.9185  1.5604  1.7719
  135ASP     CG  214   0.647   4.561   3.408 -0.5544  0.5408  0.6512
  135ASP    OD1  215   0.701   4.571   3.521  0.1409 -0.5590 -0.4281
  135ASP    OD2  216   0.521   4.559   3.399 -0.0431  0.1106  0.0614
  135ASP      C  217   0.945   4.689   3.273  0.5028 -0.2522  0.0844
  135ASP      O  218   0.870   4.784   3.304 -0.0184 -0.3172  0.1140
  136TYR      N  219   1.069   4.709   3.239 -0.4721  0.2393 -0.6592
  136TYR      H  220   1.120   4.627   3.208 -0.1566 -0.1684  0.8566
  136TYR     CA  221   1.135   4.841   3.217 -1.1387  0.7424 -0.0584
  136TYR     HA  222   1.067   4.916   3.179 -1.1784 -0.9418 -3.7252
  136TYR     CB  223   1.188   4.903   3.352  0.7889  0.1239  0.4729
  136TYR    HB1  224   1.108   4.903   3.426 -0.5277  1.5047 -0.8757
  136TYR    HB2  225   1.208   5.009   3.338  1.9761 -0.0574  0.6889
  136TYR     CG  226   1.311   4.835   3.400 -0.2533  0.6660  0.3965
  136TYR    CD1  227   1.302   4.724   3.483 -0.6242  0.3937  0.1788
  136TYR    HD1  228   1.205   4.688   3.512 -0.2372  0.0408  1.0815
  136TYR    CE1  229   1.420   4.659   3.525 -0.2470 -0.5025 -0.3250
  136TYR    HE1  230   1.422   4.567   3.582 -0.1925  0.1855  0.8263
  136TYR     CZ  231   1.544   4.719   3.482  0.1239  0.5989 -0.1498
  136TYR     OH  232   1.659   4.662   3.530  0.4376 -0.6131  0.4325
  136TYR     HH  233   1.650   4.587   3.589  3.3910 -1.1611  0.3793
  136TYR    CE2  234   1.546   4.834   3.402  0.0111  0.4718  0.3956
  136TYR    HE2  235   1.637   4.884   3.370 -0.5048  0.6920 -0.7840
  136TYR    CD2  236   1.431   4.891   3.365 -0.2315 -0.7087  0.5720
  136TYR    HD2  237   1.429   4.982   3.307 -3.0914 -1.9897 -1.6048
  136TYR      C  238   1.241   4.840   3.104  0.3295 -0.0716 -0.1643
  136TYR      O  239   1.298   4.735   3.072  0.4955  0.1265 -0.6645
  137GLU      N  240   1.256   4.954   3.034 -0.4883 -0.5401 -0.1997
  137GLU      H  241   1.204   5.031   3.073 -2.1013 -1.9964  0.6630
  137GLU     CA  242   1.355   4.986   2.928  0.7319 -0.7091  0.1776
  137GLU     HA  243   1.396   4.894   2.886 -0.0082 -0.9388 -0.0539
  137GLU     CB  244   1.266   5.041   2.810 -0.2232 -0.7362  0.3046
  137GLU    HB1  245   1.215   5.133   2.837 -1.1687 -1.5441  1.3891
  137GLU    HB2  246   1.189   4.966   2.793 -0.0842 -1.1795  1.5308
  137GLU     CG  247   1.349   5.056   2.682 -0.4341  0.1134 -1.3091
  137GLU    HG1  248   1.429   4.983   2.674  0.6674  0.9690  0.8967
  137GLU    HG2  249   1.416   5.138   2.704  0.2021 -0.3884 -1.3339
  137GLU     CD  250   1.274   5.079   2.554  0.3138 -0.0954 -1.0495
  137GLU    OE1  251   1.344   5.079   2.454 -0.3389  0.3748  0.5674
  137GLU    OE2  252   1.149   5.079   2.559  0.4548 -0.1465  0.4577
  137GLU      C  253   1.456   5.086   2.980 -0.5757 -0.3328 -0.4587
  137GLU      O  254   1.421   5.197   3.027  0.1538  0.1458  0.4683
  138PRO      N  255   1.583   5.056   2.975  0.3677  0.2712 -0.2197
  138PRO     CD  256   1.639   4.922   2.952 -0.4042  0.3427 -0.0231
  138PRO    HD1  257   1.644   4.902   2.846  0.4511  0.8444 -0.0828
  138PRO    HD2  258   1.577   4.847   3.001 -0.1398 -1.2184 -1.9920
  138PRO     CG  259   1.774   4.922   3.030  0.2340  0.1138 -0.3720
  138PRO    HG1  260   1.851   4.851   3.002  2.4016  0.3347  4.1041
  138PRO    HG2  261   1.749   4.911   3.135 -2.4015  0.3822 -0.9119
  138PRO     CB  262   1.824   5.068   3.011 -0.5883 -0.7716  0.7229
  138PRO    HB1  263   1.908   5.082   3.079  0.2800  0.6839 -0.5809
  138PRO    HB2  264   1.865   5.074   2.910  3.9124 -0.8428  2.3139
  138PRO     CA  265   1.692   5.144   3.038  1.1222 -0.0999  0.2649
  138PRO     HA  266   1.672   5.147   3.145  1.3122 -1.3622  0.3507
  138PRO      C  267   1.692   5.287   2.977 -0.3436 -0.4693 -0.0930
  138PRO      O  268   1.663   5.304   2.859  0.0102 -0.3710 -0.3339
  139GLU      N  269   1.741   5.385   3.050 -1.2104 -0.2413  0.5695
  139GLU      H  270   1.754   5.363   3.148  1.2335 -1.8359 -0.0155
  139GLU     CA  271   1.745   5.536   3.015 -0.0086 -0.2974  0.2780
  139GLU     HA  272   1.645   5.574   2.994  0.4253  0.5607 -0.2867
  139GLU     CB  273   1.798   5.617   3.135  0.2112  0.1973 -0.4388
  139GLU    HB1  274   1.907   5.619   3.132  0.2246  0.1902  0.0241
  139GLU    HB2  275   1.758   5.572   3.225 -0.1115  1.6738  0.1711
  139GLU     CG  276   1.756   5.768   3.124 -0.2440 -0.0557 -0.7391
  139GLU    HG1  277   1.647   5.771   3.120 -0.4001 -0.9039  1.4329
  139GLU    HG2  278   1.799   5.811   3.034 -0.2612 -1.0350 -1.2271
  139GLU     CD  279   1.802   5.847   3.252 -0.1047  0.0206  0.3756
  139GLU    OE1  280   1.824   5.968   3.238 -0.2258 -0.5632 -0.0940
  139GLU    OE2  281   1.831   5.799   3.364 -0.6829  0.3134 -0.5660
  139GLU      C  282   1.835   5.552   2.890  0.7096  0.1662  0.3870
  139GLU      O  283   1.822   5.644   2.804  0.0961  1.0253  0.2819
  140CALA     N  284   1.934   5.461   2.880  0.5321  0.0779 -0.6190
  140CALA     H  285   1.948   5.400   2.958  0.4910 -1.9044 -2.0807
  140CALA    CA  286   2.000   5.431   2.742 -0.2364  0.1650 -0.1466
  140CALA    HA  287   1.931   5.476   2.671 -0.0107  0.1799 -0.3553
  140CALA    CB  288   2.134   5.492   2.736  0.5158 -0.1354 -0.1182
  140CALA   HB1  289   2.188   5.459   2.648  0.3244  0.9401 -0.6528
  140CALA   HB2  290   2.195   5.471   2.824  1.3711  2.4550 -0.0327
  140CALA   HB3  291   2.114   5.598   2.725  0.7671  0.1021  1.4294
  140CALA     C  292   2.012   5.275   2.710 -0.1823 -0.1319  0.4243
  140CALA   OC1  293   1.961   5.234   2.601 -0.0975  0.0183 -0.1223
  140CALA   OC2  294   2.066   5.198   2.791  0.3444  0.0669 -0.3916
  141L47      C  295   1.651   4.889   3.830 -0.2998  0.2069 -0.1315
  141L47      H  296   1.559   4.906   3.889 -1.9813  1.0040 -2.7964
  141L47     H1  297   1.746   4.905   3.882 -0.0172 -0.1980 -0.5195
  141L47     H2  298   1.652   4.793   3.778  2.0835 -0.7885  1.5562
  141L47     C1  299   1.660   4.992   3.717  0.2561 -0.5751  1.2532
  141L47      O  300   1.770   5.013   3.660  0.7248  0.3565 -0.3557
  141L47      N  301   1.546   5.054   3.675 -0.9286 -0.2200 -0.1715
  141L47     C2  302   1.417   5.019   3.725  0.2088 -0.4075 -0.1112
  141L47     H3  303   1.419   5.042   3.832  1.6634 -0.1927 -0.1681
  141L47     H4  304   1.400   4.914   3.696  1.8086 -0.9716  0.8437
  141L47     C3  305   1.314   5.111   3.658  0.2870  0.1491  0.2130
  141L47     H5  306   1.266   5.185   3.723 -0.0565  2.2455 -2.2489
  141L47     H6  307   1.235   5.057   3.604  0.1132 -0.5955  1.1993
  141L47     C4  308   1.397   5.183   3.557 -0.6386 -0.5059 -0.8149
  141L47     C5  309   1.528   5.145   3.571 -0.8679 -0.5832  0.5623
  141L47     C6  310   1.623   5.201   3.482 -0.0759 -0.4460  0.5017
  141L47     H7  311   1.726   5.169   3.493  0.2109  0.4027  0.4113
  141L47     C7  312   1.582   5.302   3.392  0.5760 -0.2049  0.1684
  141L47     H8  313   1.652   5.347   3.322  0.8075  1.2579  1.2809
  141L47     C8  314   1.444   5.335   3.383 -0.4286  0.0951  0.2945
  141L47     C9  315   1.349   5.273   3.464 -0.3526  0.3172 -0.1196
  141L47     H9  316   1.243   5.293   3.458 -0.4368  1.1199  2.4990
  141L47      S  317   1.393   5.468   3.270 -0.2247 -0.1874  0.0463
  141L47     O1  318   1.251   5.442   3.228 -0.6949 -0.4704  0.8147
  141L47     O2  319   1.499   5.504   3.174 -0.3592 -0.1620 -0.1922
  141L47     N1  320   1.391   5.600   3.373  0.1709 -0.5776  0.9842
  141L47    C10  321   1.330   5.723   3.315 -0.0895 -0.1376 -0.4542
  141L47    H10  322   1.265   5.707   3.228  0.3453  0.4509 -0.8986
  141L47    H11  323   1.402   5.800   3.283 -0.3248 -0.4105 -1.6996
  141L47    C11  324   1.245   5.787   3.425 -0.4387 -0.5097 -0.4007
  141L47    H12  325   1.192   5.704   3.474 -2.2654 -0.4927 -2.1859
  141L47    H13  326   1.161   5.841   3.379 -0.5347 -0.7760 -0.5431
  141L47    C12  327   1.325   5.878   3.517 -0.4587 -0.1747 -0.0336
  141L47    H14  328   1.251   5.929   3.579  0.6878  0.1471  1.1215
  141L47    H15  329   1.384   5.950   3.461  0.6883 -1.6249 -0.7772
  141L47     N2  330   1.418   5.805   3.606 -0.4076 -0.0240  0.2684
  141L47    H16  331   1.454   5.865   3.682 -2.0113  1.7775 -0.3393
  141L47    H17  332   1.361   5.735   3.655  1.0803 -1.4978  0.0125
  141L47    C13  333   1.526   5.745   3.526 -0.3975  0.5544 -0.2252
  141L47    H18  334   1.616   5.738   3.587 -0.6108 -1.9000 -0.0967
  141L47    H19  335   1.549   5.818   3.449  2.1181 -1.5684 -1.6573
  141L47    C14  336   1.513   5.605   3.463 -0.0634 -0.3071  0.5748
  141L47    H20  337   1.606   5.596   3.406  0.4517  3.9224  0.4433
  141L47    H21  338   1.519   5.526   3.539 -0.9301 -1.6807 -0.7192
  142SOL     OW  339   2.209   4.887   2.480  0.1176 -0.1328  0.1436
  142SOL    HW2  340   2.245   4.937   2.553  0.2280  0.0328 -0.0248
  142SOL    HW3  341   2.245   4.928   2.402 -1.0106  0.4994 -0.0639
  142SOL    MW4  342   2.218   4.899   2.479 -0.8355  0.2604  0.0840
  143SOL     OW  343   5.523   5.658   4.597 -0.3848 -0.4840 -0.1462
  143SOL    HW2  344   5.609   5.690   4.570 -0.8509  2.1409  1.1952
  143SOL    HW3  345   5.519   5.569   4.562  2.0341  0.0223 -1.9956
  143SOL    MW4  346   5.534   5.650   4.589  0.2888 -0.0138 -0.5049
  144SOL     OW  347   5.480   2.892   2.586 -0.4945  0.2339  0.1364
  144SOL    HW2  348   5.505   2.810   2.544  0.1847 -0.1389  1.2279
  144SOL    HW3  349   5.399   2.917   2.542 -0.2422 -0.5520 -0.8196
  144SOL    MW4  350   5.472   2.884   2.575  0.4112 -0.3116 -0.0199
  145SOL     OW  351   3.527   0.837   2.147 -0.6065 -0.2456 -0.1894
  145SOL    HW2  352   3.602   0.796   2.105 -1.8338 -2.1417 -0.6784
  145SOL    HW3  353   3.556   0.855   2.237  1.1871  1.3970 -1.0498
  145SOL    MW4  354   3.541   0.834   2.154  0.2720 -0.1024 -0.1343
  146SOL     OW  355   5.877   5.532   3.313 -0.2776  0.3096 -0.1008
  146SOL    HW2  356   5.962   5.487   3.305 -0.6499 -0.1964 -1.4857
  146SOL    HW3  357   5.828   5.479   3.376  0.4897  0.7174  0.8640
  146SOL    MW4  358   5.882   5.519   3.320 -0.5516  0.1234  0.1043
  147SOL     OW  359   5.562   2.410   3.374  0.1134  0.0614 -0.1128
  147SOL    HW2  360   5.525   2.489   3.415 -0.7708  0.5161 -1.6858
  147SOL    HW3  361   5.584   2.438   3.285  1.0410 -1.1368 -0.2775
  147SOL    MW4  362   5.560   2.424   3.368  0.2395 -0.5432  0.1209
  148SOL     OW  363   1.483   1.422   1.182 -0.2373  0.5106  0.1177
  148SOL    HW2  364   1.413   1.459   1.129  0.7734 -1.1206 -2.5893
  148SOL    HW3  365   1.564   1.449   1.137  0.7259 -0.3230  1.2776
  148SOL    MW4  366   1.485   1.431   1.169  0.1000  0.0806  0.1212
  149SOL     OW  367   6.116   6.410   5.024  0.2409 -0.9142 -0.1449
  149SOL    HW2  368   6.175   6.473   4.981  0.0177 -0.4736  0.1842
  149SOL    HW3  369   6.174   6.358   5.079  0.2139  0.2218  1.0176
  149SOL    MW4  370   6.131   6.412   5.026  0.1033 -0.0131 -0.0514
  150SOL     OW  371   2.761   2.713   3.019 -0.5321  0.1321 -0.3913
  150SOL    HW2  372   2.807   2.750   2.943 -1.3559 -0.9467 -1.4694
  150SOL    HW3  373   2.826   2.657   3.062 -0.1521  0.4831 -0.5082
  150SOL    MW4  374   2.776   2.710   3.014 -0.2035  0.1294  0.0985
  151SOL     OW  375   1.992   4.388   5.225  0.5534  0.1449 -0.7087
  151SOL    HW2  376   2.062   4.354   5.280  1.3984  1.3589 -0.9857
  151SOL    HW3  377   1.994   4.483   5.238 -0.9607  0.2297 -0.8289
  151SOL    MW4  378   2.001   4.396   5.234 -0.4367  0.4427  0.5450
  152SOL     OW  379   2.186   3.981   5.041 -0.2190 -0.1417 -0.7277
  152SOL    HW2  380   2.205   4.074   5.025  0.0690 -0.0384  0.2095
  152SOL    HW3  381   2.091   3.975   5.037 -0.2551  0.2541 -0.4697
  152SOL    MW4  382   2.176   3.992   5.038  0.2602  0.4846  0.3092
  153SOL     OW  383   4.141   4.266   0.291 -0.4440 -0.5455 -0.0143
  153SOL    HW2  384   4.065   4.256   0.347  0.1734  0.3089  1.0093
  153SOL    HW3  385   4.167   4.358   0.301  1.5602 -1.1396  0.7791
  153SOL    MW4  386   4.135   4.277   0.300  0.3608  0.2890  0.0669
  154SOL     OW  387   3.638   3.568   2.019  0.5505  0.6661 -0.3864
  154SOL    HW2  388   3.726   3.531   2.021  0.2181 -0.2291 -1.1839
  154SOL    HW3  389   3.615   3.570   1.925  0.1392  1.9057 -0.2755
  154SOL    MW4  390   3.646   3.563   2.007  0.6594  0.5383 -0.5905
  155SOL     OW  391   4.357   4.306   1.972 -0.6230  0.0288  0.0161
  155SOL    HW2  392   4.398   4.227   1.936  2.8081  2.2672 -1.4573
  155SOL    HW3  393   4.397   4.317   2.058 -1.7491 -0.2265  0.5944
  155SOL    MW4  394   4.367   4.297   1.978 -0.3077 -0.4875 -0.0285
  156SOL     OW  395   4.326   3.043   4.840  0.5692 -0.2236 -0.2542
  156SOL    HW2  396   4.416   3.046   4.872  0.4412 -0.3946  0.1253
  156SOL    HW3  397   4.334   3.057   4.746  0.9321  0.4388 -0.1293
  156SOL    MW4  398   4.339   3.045   4.832  0.1922 -0.7481 -0.6238
  157SOL     OW  399   6.062   5.147   0.750 -0.3695  0.4830 -0.7366
  157SOL    HW2  400   5.999   5.078   0.770  0.2978  0.2730  0.7487
  157SOL    HW3  401   6.134   5.103   0.706 -0.2683  0.3489 -0.4379
  157SOL    MW4  402   6.063   5.132   0.747 -0.1136 -0.1428  0.5125
  158SOL     OW  403   0.259   3.788   5.539 -0.0192 -0.0469  0.7557
  158SOL    HW2  404   0.271   3.821   5.450  0.5653 -0.8420  0.5293
  158SOL    HW3  405   0.222   3.862   5.587 -2.8636 -0.3297 -0.7423
  158SOL    MW4  406   0.256   3.802   5.533 -0.0572 -0.1435  0.1132
  159SOL     OW  407   0.264   0.343   0.680  0.3847  0.0903 -0.1157
  159SOL    HW2  408   0.308   0.427   0.694  0.0276  0.1768  0.5240
  159SOL    HW3  409   0.324   0.278   0.715  0.2498  0.1618  0.2532
  159SOL    MW4  410   0.278   0.346   0.686  0.4978  0.1254  0.3029
  160SOL     OW  411   4.558   4.329   3.287  0.8005 -0.1184 -0.2341
  160SOL    HW2  412   4.551   4.373   3.203  1.5733  0.3277 -0.0689
  160SOL    HW3  413   4.634   4.368   3.330  1.2876 -1.3371  0.0747
  160SOL    MW4  414   4.567   4.340   3.282 -0.2715  0.0019 -0.4310
  161SOL     OW  415   2.867   1.867   0.801 -0.0541  0.1619 -0.2255
  161SOL    HW2  416   2.903   1.805   0.736 -0.8386 -1.7904  1.1094
  161SOL    HW3  417   2.783   1.893   0.765 -0.6982 -1.2784  0.1681
  161SOL    MW4  418   2.861   1.862   0.787 -0.0335 -0.6105 -0.1783
  162SOL     OW  419   5.671   1.987   3.027 -0.4349  0.6995  0.2413
  162SOL    HW2  420   5.705   1.962   3.113  2.7904  0.9337 -0.8467
  162SOL    HW3  421   5.733   2.053   2.995 -0.9456 -0.1008 -2.6573
  162SOL    MW4  422   5.684   1.992   3.034 -0.5168 -0.6901 -0.4213
  163SOL     OW  423   3.615   4.259   3.542 -0.4923 -0.0906 -0.2707
  163SOL    HW2  424   3.569   4.288   3.463 -0.3861  1.4126  0.1792
  163SOL    HW3  425   3.674   4.332   3.563  0.0236 -0.7832  0.7774
  163SOL    MW4  426   3.617   4.272   3.535  0.0730  0.4772 -0.0018
  164SOL     OW  427   3.865   0.915   2.642 -0.2421 -0.1028 -0.1797
  164SOL    HW2  428   3.787   0.959   2.608 -0.2401  0.1063  0.0832
  164SOL    HW3  429   3.928   0.919   2.569 -0.2754  0.2446 -0.1915
  164SOL    MW4  430   3.863   0.921   2.628  0.4686  0.4417  0.0348
  165SOL     OW  431   4.135   2.358   6.031  0.2108  0.8627 -0.1237
  165SOL    HW2  432   4.185   2.282   5.999 -1.5750 -0.0766 -0.8541
  165SOL    HW3  433   4.076   2.380   5.958  0.5380  2.8439  0.1567
  165SOL    MW4  434   4.134   2.351   6.017 -0.0900 -0.5479 -0.0406
  166SOL     OW  435   3.862   6.419   4.608  0.2429  0.0948  0.0045
  166SOL    HW2  436   3.820   6.346   4.653 -0.3376  0.1152 -0.4953
  166SOL    HW3  437   3.953   6.415   4.637  0.3405 -1.1381 -0.3824
  166SOL    MW4  438   3.869   6.409   4.618 -0.3521 -0.0160  0.1857
  167SOL     OW  439   0.372   0.334   4.694  0.9838 -0.3632 -0.6502
  167SOL    HW2  440   0.344   0.271   4.761 -1.3291  1.2145  0.0269
  167SOL    HW3  441   0.464   0.352   4.714  0.7084 -0.9061  1.3310
  167SOL    MW4  442   0.380   0.328   4.705  0.3589 -0.2039 -0.5337
  168SOL     OW  443   3.838   2.000   4.365 -0.3112  0.2776  0.1867
  168SOL    HW2  444   3.765   1.943   4.392  2.0580 -3.2209 -0.0778
  168SOL    HW3  445   3.855   1.975   4.274  1.0949  1.1247  0.1969
  168SOL    MW4  446   3.831   1.989   4.357  0.2122 -0.1575  0.9215
  169SOL     OW  447   5.170   6.090   6.320 -0.0041  0.6883 -0.6885
  169SOL    HW2  448   5.188   6.011   6.370 -0.9813  1.1140  0.3591
  169SOL    HW3  449   5.078   6.109   6.337  0.0394  1.6761 -1.4755
  169SOL    MW4  450   5.160   6.082   6.329  0.3793  0.0071 -0.1037
  170SOL     OW  451   5.157   2.559   0.359  0.1998 -0.3411 -0.3145
  170SOL    HW2  452   5.095   2.555   0.432  1.5361 -3.9148  0.8354
  170SOL    HW3  453   5.110   2.519   0.286 -1.6553  4.4596 -2.1641
  170SOL    MW4  454   5.143   2.553   0.359 -0.1534  0.2570 -0.0029
  171SOL     OW  455   1.804   4.103   5.546  0.0184  0.6385 -0.2151
  171SOL    HW2  456   1.757   4.179   5.511 -2.5719 -0.0775  1.4358
  171SOL    HW3  457   1.884   4.139   5.584 -0.0674  2.2044 -1.4445
  171SOL    MW4  458   1.808   4.118   5.546 -0.5068  0.3335 -0.2049
  172SOL     OW  459   3.095   0.739   4.745  0.1823 -0.1059 -0.0752
  172SOL    HW2  460   3.175   0.696   4.776 -0.3337  0.0875  1.6141
  172SOL    HW3  461   3.029   0.670   4.745  0.1596 -0.0960 -0.7746
  172SOL    MW4  462   3.097   0.725   4.749 -0.5455 -0.1082  0.3435
  173SOL     OW  463   4.845   5.178   3.103  0.2198 -0.0470 -0.2906
  173SOL    HW2  464   4.815   5.134   3.183 -0.6155  0.9839 -0.0081
  173SOL    HW3  465   4.777   5.157   3.038  1.0624 -1.1514 -0.8435
  173SOL    MW4  466   4.832   5.169   3.105  0.3152  0.5252  0.3641
  174SOL     OW  467   0.671   6.283   4.098 -0.2156  0.6000 -0.5038
  174SOL    HW2  468   0.712   6.220   4.158 -1.7532  0.3426  0.3308
  174SOL    HW3  469   0.577   6.266   4.107 -0.6849  3.0825 -0.1735
  174SOL    MW4  470   0.664   6.272   4.107  0.0990 -0.6638  0.3783
  175SOL     OW  471   4.344   5.077   4.597  0.2480  0.1708 -0.3719
  175SOL    HW2  472   4.359   5.171   4.588 -0.3094  0.1454 -1.8963
  175SOL    HW3  473   4.385   5.053   4.680 -0.8822  2.0312  0.7807
  175SOL    MW4  474   4.351   5.086   4.606  0.0759  0.8662 -0.4518
  176SOL     OW  475   4.937   5.572   1.961 -0.1072 -0.2120  0.0223
  176SOL    HW2  476   4.986   5.500   2.002  0.5120  1.0792  1.6944
  176SOL    HW3  477   4.884   5.608   2.033 -0.7977  0.6593 -0.9025
  176SOL    MW4  478   4.936   5.567   1.976 -0.0559 -0.2744 -0.3909
  177SOL     OW  479   2.958   1.716   0.541  0.0190 -0.3719  0.0905
  177SOL    HW2  480   3.007   1.639   0.568 -0.0021 -0.0094  1.1860
  177SOL    HW3  481   3.024   1.785   0.535 -0.3391  0.1444  1.6781
  177SOL    MW4  482   2.973   1.715   0.543 -0.4534 -0.2449  0.2107
  178SOL     OW  483   2.945   2.190   0.486  0.7356  0.0310 -0.1909
  178SOL    HW2  484   2.888   2.266   0.503  1.3813  0.5382 -0.2532
  178SOL    HW3  485   2.935   2.174   0.392 -1.1124 -1.3776  0.1825
  178SOL    MW4  486   2.936   2.198   0.476 -0.2889  0.6986 -0.5422
  179SOL     OW  487   2.740   2.378   6.244 -0.7452 -0.3506 -0.0239
  179SOL    HW2  488   2.776   2.434   6.312 -2.4018 -0.1335  0.7345
  179SOL    HW3  489   2.729   2.436   6.168 -0.8997 -0.0445  0.2275
  179SOL    MW4  490   2.743   2.393   6.243  0.0185  0.0905  0.4234
  180SOL     OW  491   2.868   4.267   3.170  0.8340 -0.0681  0.2224
  180SOL    HW2  492   2.826   4.254   3.085  1.3342  0.4754 -0.1159
  180SOL    HW3  493   2.928   4.194   3.179  0.4868 -0.3480  0.2963
  180SOL    MW4  494   2.870   4.256   3.160 -0.0793 -0.1077 -0.0813
  181SOL     OW  495   2.627   2.438   4.298  0.1457 -0.0302  0.6613
  181SOL    HW2  496   2.636   2.530   4.325  1.9376  0.1624 -0.4084
  181SOL    HW3  497   2.634   2.441   4.202  1.0159 -1.3457  0.6597
  181SOL    MW4  498   2.629   2.451   4.289 -0.1367 -0.0905 -0.2124
  182SOL     OW  499   6.029   4.744   6.347  0.4550  0.6786 -0.0093
  182SOL    HW2  500   6.013   4.832   6.311  1.4713  1.1780  0.7098
  182SOL    HW3  501   6.098   4.708   6.292  0.2241  0.4225 -0.1349
  182SOL    MW4  502   6.036   4.751   6.335  0.8520  0.1094 -0.5023
  183SOL     OW  503   5.598   1.530   3.569  0.1435  0.0029 -0.3149
  183SOL    HW2  504   5.639   1.613   3.593 -1.7280  0.8656  0.0520
  183SOL    HW3  505   5.657   1.463   3.604  0.9019  1.1888  0.7556
  183SOL    MW4  506   5.611   1.532   3.577  0.3305  0.3037  0.1003
  184SOL     OW  507   0.791   3.771   2.466 -0.2658  0.0019 -0.1976
  184SOL    HW2  508   0.881   3.755   2.437 -0.4460 -0.5915 -0.4380
  184SOL    HW3  509   0.769   3.856   2.428  0.6229  0.7517  0.9016
  184SOL    MW4  510   0.800   3.780   2.457  0.4360  0.4192 -0.4898
  185SOL     OW  511   2.924   3.594   3.504  0.2414 -0.2460 -0.2189
  185SOL    HW2  512   2.948   3.673   3.551 -2.3910  0.3430  0.3077
  185SOL    HW3  513   2.939   3.615   3.412  1.0323  0.2972  0.0327
  185SOL    MW4  514   2.929   3.607   3.498  0.1673 -0.4633 -0.0604
  186SOL     OW  515   6.089   3.774   3.826 -0.1373 -0.2661 -0.3777
  186SOL    HW2  516   6.045   3.754   3.909  0.6017 -2.1409 -0.3925
  186SOL    HW3  517   6.165   3.826   3.851  1.2195 -2.5133  0.4115
  186SOL    MW4  518   6.093   3.778   3.840 -0.0388  1.1730  0.0147
  187SOL     OW  519   2.913   3.358   1.157 -0.2993 -0.7155  0.3613
  187SOL    HW2  520   2.933   3.310   1.237  0.1311 -0.8169  0.1991
  187SOL    HW3  521   2.895   3.291   1.092  0.9042 -0.6991 -0.0211
  187SOL    MW4  522   2.914   3.343   1.159  0.7051  0.1404 -0.4445
  188SOL     OW  523   0.108   3.512   5.833  0.0762  0.3276 -0.2368
  188SOL    HW2  524   0.074   3.552   5.753  2.0853  1.1172 -0.7391
  188SOL    HW3  525   0.106   3.583   5.897 -0.6746 -0.0585  0.1809
  188SOL    MW4  526   0.103   3.527   5.831  0.1529  0.2867  0.1397
  189SOL     OW  527   5.330   5.103   4.459 -0.4549  0.2749  0.0849
  189SOL    HW2  528   5.277   5.115   4.538  0.3042  0.2831  0.6052
  189SOL    HW3  529   5.420   5.105   4.490 -0.1490  0.0131 -0.7525
  189SOL    MW4  530   5.335   5.104   4.474  0.3654  0.3215 -0.8620
  190SOL     OW  531   2.996   0.833   5.019  0.1981 -0.2025  0.5112
  190SOL    HW2  532   2.961   0.748   5.045  0.0866 -0.7833 -1.3254
  190SOL    HW3  533   3.001   0.828   4.923  0.2515  1.8470  0.3620
  190SOL    MW4  534   2.992   0.821   5.010 -0.1137 -0.2776 -0.4674
  191SOL     OW  535   6.383   4.972   4.821  0.4280 -0.0709 -0.6008
  191SOL    HW2  536   6.359   4.939   4.908 -0.9996  0.6169 -0.7089
  191SOL    HW3  537   6.478   4.965   4.819  0.4878 -0.2075  0.9725
  191SOL    MW4  538   6.392   4.966   4.832  0.4981  0.0970  0.6608
  192SOL     OW  539   1.498   0.549   0.434 -0.1932 -0.4857 -0.0019
  192SOL    HW2  540   1.556   0.475   0.454 -0.1586  0.1301  2.4544
  192SOL    HW3  541   1.431   0.511   0.378  1.3505 -1.7162 -1.1306
  192SOL    MW4  542   1.497   0.534   0.429 -0.3118 -0.7502 -0.5227
  193SOL     OW  543   2.961   1.074   2.966 -0.1550 -0.1140  0.0563
  193SOL    HW2  544   3.010   1.148   3.001  1.7230 -0.3247 -1.8685
  193SOL    HW3  545   2.993   0.998   3.015  0.1779 -0.0104  0.0043
  193SOL    MW4  546   2.972   1.073   2.977  0.2990 -1.1371  0.1936
  194SOL     OW  547   3.344   2.255   4.630 -0.0838 -0.2110 -0.1806
  194SOL    HW2  548   3.262   2.212   4.653  0.5241 -1.3211 -0.0280
  194SOL    HW3  549   3.366   2.308   4.706 -0.0074 -0.9274  0.3064
  194SOL    MW4  550   3.336   2.256   4.643  0.1652  0.2031 -0.0264
  195SOL     OW  551   5.705   4.498   5.664  0.7486  0.1872 -0.0539
  195SOL    HW2  552   5.629   4.486   5.720  1.0482 -0.0750  0.3074
  195SOL    HW3  553   5.750   4.574   5.700 -0.4371  1.6437 -1.5357
  195SOL    MW4  554   5.701   4.506   5.676 -0.0556 -0.4570 -0.6567
  196SOL     OW  555   1.746   3.194   2.641  1.0432 -0.4485  0.3862
  196SOL    HW2  556   1.778   3.259   2.578 -1.0892  0.6290  0.3256
  196SOL    HW3  557   1.779   3.225   2.725  1.6890 -0.4144  0.1277
  196SOL    MW4  558   1.755   3.207   2.644 -0.0264 -0.4695 -0.3154
  197SOL     OW  559   1.134   5.280   3.984 -0.1431  0.2103 -0.0634
  197SOL    HW2  560   1.171   5.199   4.018 -1.3906  0.2502  1.5421
  197SOL    HW3  561   1.093   5.255   3.901 -1.0230 -0.9774  0.6917
  197SOL    MW4  562   1.133   5.266   3.978  0.1829  0.2941 -0.7286
  198SOL     OW  563   4.073   5.085   0.258  0.2805  0.6262  0.0994
  198SOL    HW2  564   4.149   5.030   0.278  1.5902  1.6354 -1.8069
  198SOL    HW3  565   4.012   5.068   0.330  1.8722 -0.9931  1.1615
  198SOL    MW4  566   4.075   5.075   0.270 -0.4182 -0.6648 -0.0528
  199SOL     OW  567   0.039   4.711   5.509 -0.4800 -0.1722 -0.2120
  199SOL    HW2  568   0.079   4.798   5.498 -1.0501  0.2548  0.9710
  199SOL    HW3  569  -0.049   4.729   5.542 -0.1979 -1.2150  1.1852
  199SOL    MW4  570   0.033   4.725   5.511 -0.2077 -0.0155 -0.3827
  200SOL     OW  571   0.138   5.117   3.354 -0.2617 -0.2253  0.6201
  200SOL    HW2  572   0.049   5.084   3.367 -0.2007 -0.6063  0.1097
  200SOL    HW3  573   0.140   5.200   3.401 -0.7410 -0.4456  1.0367
  200SOL    MW4  574   0.126   5.124   3.362 -0.1730 -0.4160  0.1040
  201SOL     OW  575   5.164   1.397   5.191  0.1370  0.0612 -0.0103
  201SOL    HW2  576   5.230   1.446   5.240  0.7436 -0.3334 -0.4219
  201SOL    HW3  577   5.214   1.338   5.135 -0.5281  0.5475 -1.1708
  201SOL    MW4  578   5.179   1.396   5.190 -0.4656 -0.5299  0.1630
  202SOL     OW  579   6.172   6.236   4.159  0.4162 -0.4939  0.2674
  202SOL    HW2  580   6.137   6.277   4.239  0.0241  0.2422 -0.2642
  202SOL    HW3  581   6.251   6.192   4.188  2.0619  2.3727  0.5452
  202SOL    MW4  582   6.178   6.236   4.174 -0.1521  0.0908  0.3241
  203SOL     OW  583   1.089   5.288   1.383  0.1906  0.0429  0.1398
  203SOL    HW2  584   1.168   5.323   1.341  0.4556 -1.9291 -1.1065
  203SOL    HW3  585   1.023   5.287   1.314  0.5067 -2.8192 -0.2449
  203SOL    MW4  586   1.091   5.292   1.368  0.7878 -0.0679  0.1983
  204SOL     OW  587   4.281   2.271   1.754 -0.6771 -0.0878  0.1689
  204SOL    HW2  588   4.347   2.333   1.786 -2.2116  0.5943  2.2282
  204SOL    HW3  589   4.304   2.188   1.795 -0.6035 -0.0573  0.1893
  204SOL    MW4  590   4.293   2.268   1.764 -0.1004  0.0135 -0.8735
  205SOL     OW  591   6.406   1.688   0.903  0.3137  0.1704 -0.1171
  205SOL    HW2  592   6.474   1.734   0.952  0.1989  0.9624 -0.6688
  205SOL    HW3  593   6.393   1.606   0.950  3.0637 -0.9323 -1.1178
  205SOL    MW4  594   6.413   1.683   0.916 -0.3401  0.0438  0.0856
  206SOL     OW  595   3.753   2.960   2.446  0.1911 -0.3940  0.1679
  206SOL    HW2  596   3.697   2.892   2.407  0.2080 -1.4774  1.9462
  206SOL    HW3  597   3.741   3.036   2.388 -4.0101 -0.1874  0.9774
  206SOL    MW4  598   3.744   2.961   2.433 -0.1728  0.1512 -0.6130
  207SOL     OW  599   3.011   3.688   0.852  0.1983 -0.0872 -0.4002
  207SOL    HW2  600   3.084   3.728   0.900  0.3111 -2.1257  1.2865
  207SOL    HW3  601   2.996   3.746   0.778  3.2557  0.6285 -0.5854
  207SOL    MW4  602   3.019   3.701   0.849  0.1729  0.3445  0.1220
  208SOL     OW  603   2.980   1.005   2.290  0.1184 -0.5470  0.1398
  208SOL    HW2  604   3.020   0.918   2.294 -1.2425 -1.1962  0.0048
  208SOL    HW3  605   2.990   1.039   2.379 -1.4477 -1.8451  0.8729
  208SOL    MW4  606   2.987   0.998   2.303  0.5465 -0.1776 -0.0960
  209SOL     OW  607   1.557   3.957   0.784  0.2362  0.3632  0.2992
  209SOL    HW2  608   1.602   4.014   0.722  1.2255 -0.5958  0.1008
  209SOL    HW3  609   1.626   3.899   0.818 -0.3606  0.6066  2.0106
  209SOL    MW4  610   1.572   3.957   0.780 -0.3241 -0.0310 -0.1004
  210SOL     OW  611   5.951   5.757   0.206  0.0310 -0.0614  0.0145
  210SOL    HW2  612   6.034   5.752   0.158  0.2792 -2.1835  0.5896
  210SOL    HW3  613   5.884   5.747   0.138  0.2583  0.5612 -0.3147
  210SOL    MW4  614   5.953   5.755   0.191  0.2741  0.2571 -0.3643
  211SOL     OW  615   4.695   3.458   4.041  0.4243  0.3542 -0.2505
  211SOL    HW2  616   4.766   3.407   4.002  1.0032  1.1134 -0.2135
  211SOL    HW3  617   4.717   3.549   4.021 -1.3161  0.5398 -1.5321
  211SOL    MW4  618   4.707   3.464   4.033  0.1137 -0.0425 -0.0745
  212SOL     OW  619   5.504   4.240   6.329  0.0656  0.3802  0.5052
  212SOL    HW2  620   5.578   4.279   6.376  0.3367 -0.5394  0.8865
  212SOL    HW3  621   5.488   4.158   6.376  1.5546 -1.5315 -2.0546
  212SOL    MW4  622   5.512   4.234   6.342 -0.3530 -0.5510  0.0060
  213SOL     OW  623   4.935   1.344   0.175 -1.1634 -0.0821  0.0965
  213SOL    HW2  624   4.853   1.373   0.216 -0.1609  0.3332  1.8799
  213SOL    HW3  625   4.991   1.422   0.176 -0.4470 -0.5795 -0.3775
  213SOL    MW4  626   4.931   1.358   0.180  0.0251 -0.3387  0.5914
  214SOL     OW  627   2.574   5.122   1.358  0.1167  0.2604  0.1007
  214SOL    HW2  628   2.611   5.080   1.280 -0.2932  1.7071 -0.9114
  214SOL    HW3  629   2.591   5.215   1.346 -2.4018  0.8228  0.3646
  214SOL    MW4  630   2.581   5.129   1.346  0.0213  0.5303  0.4407
  215SOL     OW  631   0.123   5.184   4.402 -0.4415 -0.1000  0.1120
  215SOL    HW2  632   0.158   5.174   4.490 -0.1875  0.7436  0.1186
  215SOL    HW3  633   0.200   5.199   4.347 -0.6637  0.2841 -0.1047
  215SOL    MW4  634   0.138   5.185   4.406  0.3269 -0.0195  0.0492
  216SOL     OW  635   2.514   0.172   1.740 -0.1177 -0.2637 -0.4421
  216SOL    HW2  636   2.521   0.079   1.717 -0.1277 -0.2594 -0.4628
  216SOL    HW3  637   2.557   0.179   1.825 -2.3612 -0.7656  0.8233
  216SOL    MW4  638   2.520   0.161   1.748  0.1574  0.3958 -0.9172
  217SOL     OW  639   5.637   4.475   4.098  0.0150 -0.0272  0.4149
  217SOL    HW2  640   5.732   4.468   4.085 -0.3064 -1.6403 -1.5687
  217SOL    HW3  641   5.607   4.385   4.101 -1.8489  0.2891 -2.9527
  217SOL    MW4  642   5.646   4.463   4.096 -0.6360  0.4694 -0.0792
  218SOL     OW  643   6.189   1.654   0.007 -0.2204 -0.2894  0.2384
  218SOL    HW2  644   6.146   1.736  -0.019 -0.7923 -0.3679  0.8904
  218SOL    HW3  645   6.130   1.617   0.073  0.2076 -1.0589  0.1956
  218SOL    MW4  646   6.175   1.660   0.012  0.3188 -0.0756  0.6535
  219SOL     OW  647   4.754   0.987   1.962  0.3720  0.3213  0.5728
  219SOL    HW2  648   4.668   1.023   1.985  0.4010 -1.3926  3.9744
  219SOL    HW3  649   4.750   0.896   1.992  2.2121 -0.9136 -2.5380
  219SOL    MW4  650   4.742   0.980   1.969  0.1434 -0.8795 -0.3217
  220SOL     OW  651   4.777   0.543   4.413  0.9340  0.4526  0.5473
  220SOL    HW2  652   4.817   0.457   4.425 -2.1163 -1.3056 -0.6707
  220SOL    HW3  653   4.782   0.559   4.319 -3.1307 -1.0749 -0.1213
  220SOL    MW4  654   4.783   0.534   4.402  0.1516  0.4640  0.4732
  221SOL     OW  655   3.117   5.597   1.736 -0.0001 -0.1916  0.0550
  221SOL    HW2  656   3.080   5.680   1.705  1.6180  0.7680  0.5581
  221SOL    HW3  657   3.131   5.546   1.656  0.3448  0.6227 -0.4179
  221SOL    MW4  658   3.114   5.601   1.721 -0.2273  0.0758  0.3116
  222SOL     OW  659   6.049   4.308   5.141 -0.0054 -0.2430  0.3970
  222SOL    HW2  660   6.042   4.282   5.049 -2.3409  1.1142  0.1212
  222SOL    HW3  661   5.960   4.333   5.166  1.0576  2.2312  2.1567
  222SOL    MW4  662   6.037   4.308   5.132  0.5656  0.5474 -0.3852
  223SOL     OW  663   5.536   0.786   3.317 -0.2477 -0.3209  0.2796
  223SOL    HW2  664   5.477   0.770   3.244 -0.8955  0.4160  0.6324
  223SOL    HW3  665   5.517   0.875   3.345  1.8474  0.3812 -0.3492
  223SOL    MW4  666   5.526   0.796   3.311 -0.4766  0.3265 -0.1211
  224SOL     OW  667   6.282   1.947   1.192  0.2737 -0.0558 -0.0815
  224SOL    HW2  668   6.365   1.994   1.204  0.2838 -0.0872 -0.0274
  224SOL    HW3  669   6.216   2.007   1.227  0.2261  0.1525 -0.5241
  224SOL    MW4  670   6.284   1.961   1.199  0.8059 -0.7056 -0.2276
  225SOL     OW  671   4.578   5.334   1.491  0.4672 -0.1431  0.4302
  225SOL    HW2  672   4.484   5.331   1.473  0.6270  1.0333 -0.8030
  225SOL    HW3  673   4.591   5.416   1.540  0.5741 -1.4373  2.6870
  225SOL    MW4  674   4.568   5.345   1.495 -0.3328 -0.8394 -0.0777
  226SOL     OW  675   5.911   5.690   0.468  0.0301  0.2400 -0.0376
  226SOL    HW2  676   5.853   5.763   0.488 -2.1748 -1.4316  0.1503
  226SOL    HW3  677   5.915   5.687   0.372 -2.9336 -1.4574 -0.2431
  226SOL    MW4  678   5.904   5.699   0.458  0.3193  0.5707  0.5235
  227SOL     OW  679   4.360   0.581   5.200 -0.4680  0.2346 -0.0023
  227SOL    HW2  680   4.437   0.528   5.220 -1.5648 -0.9890  1.2657
  227SOL    HW3  681   4.358   0.647   5.269  0.3170  1.3048 -0.9768
  227SOL    MW4  682   4.370   0.583   5.212  0.3216 -0.5353 -0.4015
  228SOL     OW  683   0.450   1.742   4.008 -0.1543  0.7894  0.2500
  228SOL    HW2  684   0.464   1.813   4.071  0.2412  0.8562  0.0907
  228SOL    HW3  685   0.510   1.673   4.036 -1.4370 -0.0083  1.1721
  228SOL    MW4  686   0.460   1.742   4.020  0.6727  0.3321  0.1368
  229SOL     OW  687   1.841   3.543   0.227 -0.4388  0.0497  0.1286
  229SOL    HW2  688   1.832   3.548   0.323  0.4118 -0.0082  0.2199
  229SOL    HW3  689   1.900   3.469   0.213 -0.3087  0.2558 -0.4251
  229SOL    MW4  690   1.847   3.534   0.238  0.7432  0.0908  0.4619
  230SOL     OW  691   2.672   3.316   1.613  0.5292  0.8965  0.4008
  230SOL    HW2  692   2.671   3.411   1.602  0.8185  0.8729  0.1787
  230SOL    HW3  693   2.593   3.286   1.568  1.2603  0.8814 -0.9198
  230SOL    MW4  694   2.661   3.325   1.606 -0.5128  0.2616  0.1260
  231SOL     OW  695   4.345   5.012   6.099  0.8239  0.2994  0.5345
  231SOL    HW2  696   4.425   4.968   6.125 -0.3995 -1.9477  0.7408
  231SOL    HW3  697   4.318   5.060   6.178  1.8635  0.9786  0.4988
  231SOL    MW4  698   4.352   5.013   6.113 -0.0103  0.2226  0.0792
  232SOL     OW  699   5.326   3.026   3.277  0.1682  0.0681 -0.2588
  232SOL    HW2  700   5.410   2.984   3.295  0.0271  0.0450  0.3946
  232SOL    HW3  701   5.314   3.019   3.182 -0.1928 -2.0480 -0.1106
  232SOL    MW4  702   5.335   3.020   3.267  0.0107 -0.3124  0.3915
  233SOL     OW  703   0.816   4.252   0.543  0.2458  0.1292 -0.6378
  233SOL    HW2  704   0.877   4.247   0.469  0.6787 -2.8543 -0.2059
  233SOL    HW3  705   0.829   4.170   0.591 -0.2861  1.7583  2.5792
  233SOL    MW4  706   0.826   4.241   0.539  0.1259 -0.5590 -0.7107
  234SOL     OW  707   0.061   3.326   1.583  0.0164 -0.2870 -0.9749
  234SOL    HW2  708   0.075   3.238   1.619  2.0647  0.0589 -0.8212
  234SOL    HW3  709   0.057   3.382   1.660  1.0798  0.0262 -1.1285
  234SOL    MW4  710   0.062   3.322   1.598 -0.3667  0.2015  0.2362
  235SOL     OW  711   2.778   4.138   1.340  0.1411 -0.1681 -0.3094
  235SOL    HW2  712   2.838   4.068   1.312  1.9615  0.8528  0.8687
  235SOL    HW3  713   2.700   4.125   1.286  1.3834 -1.5832 -1.8847
  235SOL    MW4  714   2.775   4.127   1.329 -0.5905 -0.3764  0.2018
  236SOL     OW  715   1.109   4.990   1.364 -0.0682 -0.6010 -0.3639
  236SOL    HW2  716   1.194   4.979   1.408 -0.5583 -0.6406  0.5917
  236SOL    HW3  717   1.080   5.077   1.392 -0.6371 -0.8534 -0.1635
  236SOL    MW4  718   1.117   5.000   1.374 -0.0003 -0.7415 -0.7265
  237SOL     OW  719   5.884   2.349   4.000 -0.0881  0.0554  0.3812
  237SOL    HW2  720   5.865   2.374   4.091 -1.1767  0.3780  0.0859
  237SOL    HW3  721   5.930   2.265   4.007  2.3386  1.3628  1.3360
  237SOL    MW4  722   5.887   2.341   4.013  0.3890  0.8785 -0.3913
  238SOL     OW  723   3.877   4.530   0.562  0.5837 -0.0772  0.0778
  238SOL    HW2  724   3.887   4.568   0.474  1.6784 -1.5972 -0.4895
  238SOL    HW3  725   3.966   4.503   0.586  0.1353 -0.5421  1.2508
  238SOL    MW4  726   3.890   4.532   0.553 -0.0149 -0.2132 -0.1184
  239SOL     OW  727   4.242   5.049   1.912  0.3267 -0.1346  0.5277
  239SOL    HW2  728   4.263   4.984   1.845  0.7195  1.2365 -0.7271
  239SOL    HW3  729   4.281   5.015   1.992 -1.6658 -2.6981  0.5085
  239SOL    MW4  730   4.250   5.036   1.914  1.1440  0.4255 -0.0027
  240SOL     OW  731   0.179   5.882   1.452 -0.3366 -0.4531 -0.2532
  240SOL    HW2  732   0.166   5.972   1.422  2.9393  0.6813  1.1973
  240SOL    HW3  733   0.130   5.877   1.534  0.0977  0.3176  0.0651
  240SOL    MW4  734   0.171   5.893   1.459  0.2438 -0.3224 -0.5443
  241SOL     OW  735   2.601   5.826   3.892 -0.0085 -0.2556  0.7626
  241SOL    HW2  736   2.590   5.859   3.981  2.5852 -1.1871  1.4930
  241SOL    HW3  737   2.536   5.756   3.884 -2.3256  1.7335  0.7917
  241SOL    MW4  738   2.591   5.821   3.903 -0.2094 -0.2083 -0.5012
  242SOL     OW  739   1.196   5.381   0.277  0.0085 -0.9277 -0.2492
  242SOL    HW2  740   1.253   5.333   0.215 -0.4694 -0.3101 -1.1890
  242SOL    HW3  741   1.109   5.343   0.263 -0.0148 -1.1150  0.4008
  242SOL    MW4  742   1.192   5.369   0.267  0.2148  0.4205  0.3761
  243SOL     OW  743   2.014   0.629   2.928  0.1882  0.0455  0.1043
  243SOL    HW2  744   1.922   0.629   2.902 -0.6385 -0.5092  2.7606
  243SOL    HW3  745   2.051   0.704   2.881 -2.2603  1.9476  0.9574
  243SOL    MW4  746   2.007   0.639   2.918  0.0425 -0.4360  0.2966
  244SOL     OW  747   1.973   0.666   3.201  0.1676  0.2451 -0.1572
  244SOL    HW2  748   1.982   0.685   3.108  0.5887 -3.8666 -1.1423
  244SOL    HW3  749   2.051   0.615   3.223 -0.5392  0.0406  2.1278
  244SOL    MW4  750   1.984   0.662   3.192 -0.3409  0.5176  0.0166
  245SOL     OW  751   0.945   4.673   6.081 -0.0818 -0.1472 -0.7663
  245SOL    HW2  752   1.023   4.728   6.092 -1.0345  0.8581  1.4245
  245SOL    HW3  753   0.963   4.594   6.131  0.5543 -1.1464 -2.4643
  245SOL    MW4  754   0.958   4.670   6.089 -0.2766 -0.0287 -0.8159
  246SOL     OW  755   2.073   1.375   2.494 -0.1948 -0.3551 -0.1119
  246SOL    HW2  756   2.106   1.290   2.464 -0.5431 -0.0901 -1.3226
  246SOL    HW3  757   1.979   1.362   2.505 -0.0431 -0.4950  1.0843
  246SOL    MW4  758   2.065   1.362   2.491 -0.2671 -0.0977 -0.4174
  247SOL     OW  759   0.935   0.971   2.985 -0.1020  0.3886 -0.1249
  247SOL    HW2  760   1.014   0.943   2.940 -0.8654  1.4832 -2.2642
  247SOL    HW3  761   0.884   1.017   2.919 -2.3056  0.1879  1.3222
  247SOL    MW4  762   0.938   0.974   2.971  0.1380  0.4658  0.1780
  248SOL     OW  763   2.318   4.536   2.922  0.0498 -0.0862 -0.1937
  248SOL    HW2  764   2.387   4.596   2.951  1.5724 -1.7510 -0.2105
  248SOL    HW3  765   2.279   4.502   3.003  0.5136 -0.5400 -0.1600
  248SOL    MW4  766   2.322   4.539   2.936 -0.1447  0.0882 -0.4204
  249SOL     OW  767   3.381   4.594   1.805  0.2894  0.3015  0.3306
  249SOL    HW2  768   3.358   4.687   1.810  1.4157  0.8486 -2.6279
  249SOL    HW3  769   3.469   4.590   1.844  0.1919  0.4205  0.5703
  249SOL    MW4  770   3.390   4.606   1.811  0.3660 -0.1993 -0.0601
  250SOL     OW  771   0.516   0.350   3.284 -0.6518  0.0019  0.1920
  250SOL    HW2  772   0.546   0.268   3.323  1.8846  1.6811  2.0118
  250SOL    HW3  773   0.507   0.330   3.191 -2.7521 -2.9997  0.8972
  250SOL    MW4  774   0.518   0.336   3.277 -0.0862  0.5839  0.3011
  251SOL     OW  775   3.808   5.786   6.001 -0.1681  0.2963 -0.3917
  251SOL    HW2  776   3.726   5.760   6.044  0.5129  0.0839  0.8596
  251SOL    HW3  777   3.784   5.859   5.945 -1.1001  0.6912  0.4803
  251SOL    MW4  778   3.794   5.792   6.000 -0.7734  0.5610 -0.3214
  252SOL     OW  779   6.208   5.526   3.089 -0.3828  0.1225  0.6970
  252SOL    HW2  780   6.303   5.533   3.099 -0.2413 -2.2488  1.8692
  252SOL    HW3  781   6.195   5.493   3.000  0.1265 -1.8511  1.2998
  252SOL    MW4  782   6.218   5.522   3.079 -0.1902 -0.1572 -0.5933
  253SOL     OW  783   2.208   2.708   4.476 -0.1585 -0.6875  0.2325
  253SOL    HW2  784   2.279   2.682   4.417 -1.5386  0.3663 -2.0615
  253SOL    HW3  785   2.143   2.749   4.418 -1.6236  0.4525  2.5402
  253SOL    MW4  786   2.209   2.710   4.460 -0.3756  0.2424 -0.2270
  254SOL     OW  787   1.728   5.199   0.604 -0.3638  1.0875 -0.1584
  254SOL    HW2  788   1.805   5.199   0.660 -1.0056 -1.0805  0.8200
  254SOL    HW3  789   1.655   5.218   0.663 -0.8460  0.5900 -0.5839
  254SOL    MW4  790   1.729   5.201   0.619  0.2530 -0.7444  0.0377
  255SOL     OW  791   2.081   5.569   4.662 -0.5962 -0.0779  0.3191
  255SOL    HW2  792   2.139   5.638   4.696 -1.2121  0.4772  0.2603
  255SOL    HW3  793   2.141   5.500   4.635  0.0037  0.1851  0.9259
  255SOL    MW4  794   2.097   5.569   4.663 -0.2598  0.1006 -0.4380
  256SOL     OW  795   5.937   2.722   3.614 -0.6288 -0.1006  0.1814
  256SOL    HW2  796   5.872   2.728   3.684 -0.1943  1.6324  0.5010
  256SOL    HW3  797   5.931   2.806   3.569  3.3743  1.5259  2.1387
  256SOL    MW4  798   5.928   2.734   3.618  0.0936 -0.1409  0.1722
  257SOL     OW  799   1.408   3.101   4.816 -0.8544 -0.0632  0.6858
  257SOL    HW2  800   1.375   3.135   4.733  1.4359  1.8383  0.4707
  257SOL    HW3  801   1.503   3.104   4.808 -0.5641 -0.5267  3.1047
  257SOL    MW4  802   1.416   3.106   4.804 -0.5171 -0.0961  0.3570
  258SOL     OW  803   1.517   2.447   3.526  0.0379  0.7643 -0.1637
  258SOL    HW2  804   1.565   2.428   3.446 -0.6934 -1.7456 -0.0927
  258SOL    HW3  805   1.558   2.393   3.593 -3.5774 -2.7567 -0.4198
  258SOL    MW4  806   1.528   2.437   3.525  0.2771  0.2718 -0.0734
  259SOL     OW  807   4.133   5.511   5.555  0.1519  0.0715 -0.0161
  259SOL    HW2  808   4.153   5.461   5.634 -0.9879  0.1063  0.3157
  259SOL    HW3  809   4.067   5.575   5.583 -0.7585 -0.3418 -1.1151
  259SOL    MW4  810   4.127   5.513   5.569  0.3023 -0.1582  0.0112
  260SOL     OW  811   5.990   0.196   3.949  0.4399  0.7769  0.1812
  260SOL    HW2  812   5.966   0.120   4.002  0.0427  0.8505  0.1083
  260SOL    HW3  813   5.940   0.186   3.868  0.1794  1.2612  0.2815
  260SOL    MW4  814   5.981   0.185   3.945  0.7725  0.0726  0.8270
  261SOL     OW  815   5.703   4.356   0.078  0.1882 -0.1486 -0.1813
  261SOL    HW2  816   5.626   4.407   0.106  0.6640  0.3976  0.1702
  261SOL    HW3  817   5.757   4.419   0.030  0.7797 -0.3217  0.2481
  261SOL    MW4  818   5.700   4.371   0.076  0.8556 -0.1063  0.2951
  262SOL     OW  819   4.602   2.340   3.845  0.2951  0.1939  0.6846
  262SOL    HW2  820   4.676   2.292   3.882  0.5315 -0.2054 -0.2716
  262SOL    HW3  821   4.631   2.432   3.844  1.3029 -0.0971 -0.8088
  262SOL    MW4  822   4.616   2.346   3.850  0.2408 -0.1713 -0.0667
  263SOL     OW  823   5.439   3.496   2.099 -0.3095 -0.4556  0.5016
  263SOL    HW2  824   5.360   3.489   2.046 -0.3183 -2.4577  0.6947
  263SOL    HW3  825   5.481   3.410   2.092  3.8953  1.4542 -2.5844
  263SOL    MW4  826   5.434   3.484   2.091  0.2754  0.3141 -0.3669
  264SOL     OW  827   2.438   2.968   4.213 -0.1408  0.3812 -0.0330
  264SOL    HW2  828   2.406   2.973   4.123 -0.0376 -0.3102 -0.1164
  264SOL    HW3  829   2.402   2.886   4.247 -0.6292  0.8993  0.7399
  264SOL    MW4  830   2.429   2.958   4.206  0.3490  0.0097  0.3696
  265SOL     OW  831   0.552   5.503   5.531 -0.2571 -0.0707  0.0545
  265SOL    HW2  832   0.609   5.448   5.477 -0.5640 -0.3501  0.0130
  265SOL    HW3  833   0.463   5.482   5.502 -0.3852  0.3594  0.1218
  265SOL    MW4  834   0.548   5.493   5.520  0.1553 -0.5532  0.0938
  266SOL     OW  835   4.398   0.645   3.182 -0.0932  0.6064 -0.1418
  266SOL    HW2  836   4.385   0.724   3.129  1.1099  0.9908  0.1093
  266SOL    HW3  837   4.382   0.674   3.272  1.4173  0.8622  0.0731
  266SOL    MW4  838   4.394   0.659   3.187  0.2946 -0.2555  0.1951
  267SOL     OW  839   2.212   3.224   6.142 -0.1255 -0.3270 -0.1269
  267SOL    HW2  840   2.125   3.203   6.106 -0.9361  1.2952  0.7860
  267SOL    HW3  841   2.260   3.260   6.068 -1.0490  0.9678 -0.1173
  267SOL    MW4  842   2.207   3.226   6.127  0.0247  0.3572  0.0047
  268SOL     OW  843   2.527   3.727   3.803  0.8080 -0.1158 -0.0385
  268SOL    HW2  844   2.555   3.704   3.892 -0.6060 -0.2465  0.3871
  268SOL    HW3  845   2.456   3.666   3.784 -0.5483  1.5071 -0.3213
  268SOL    MW4  846   2.521   3.716   3.812 -0.0533  0.2747 -0.4761
  269SOL     OW  847   4.601   2.809   5.908  0.2659 -0.4419  0.1901
  269SOL    HW2  848   4.643   2.863   5.842  0.1676 -0.1824  0.3409
  269SOL    HW3  849   4.620   2.853   5.991 -2.2428  0.9615  0.0956
  269SOL    MW4  850   4.609   2.822   5.910  0.1460  0.0854  0.1789
  270SOL     OW  851   2.705   4.755   2.871  0.1762 -0.1496 -0.3071
  270SOL    HW2  852   2.748   4.669   2.874  1.3538  0.3815 -1.4142
  270SOL    HW3  853   2.756   4.809   2.932  1.9896  0.8426 -2.5746
  270SOL    MW4  854   2.717   4.750   2.880  0.4045  0.5700 -0.3590
  271SOL     OW  855   3.051   2.109   0.046 -1.0697 -0.2031 -0.3463
  271SOL    HW2  856   3.018   2.045   0.108 -1.8449  0.9232  0.4263
  271SOL    HW3  857   3.064   2.188   0.097 -0.9652  0.5259 -1.4667
  271SOL    MW4  858   3.049   2.111   0.061 -0.4372  0.0209  0.2561
  272SOL     OW  859   4.384   0.936   4.576  0.1431  0.1939  0.5181
  272SOL    HW2  860   4.373   0.964   4.666 -2.1849  2.3942 -0.3419
  272SOL    HW3  861   4.374   1.016   4.524 -0.8756 -1.3176 -1.8134
  272SOL    MW4  862   4.382   0.950   4.581 -0.2946 -0.3184 -0.1670
  273SOL     OW  863   0.353   5.045   3.981 -0.1779 -0.5764 -0.3416
  273SOL    HW2  864   0.263   5.012   3.981  0.4851 -2.5627 -0.9463
  273SOL    HW3  865   0.403   4.977   3.936  1.6570  0.4334  0.0639
  273SOL    MW4  866   0.348   5.032   3.975 -0.0143 -0.3980  0.2303
  274SOL     OW  867   2.156   0.410   4.036  0.4547 -0.8316 -1.0117
  274SOL    HW2  868   2.126   0.375   4.120  0.2184  1.0989 -0.2300
  274SOL    HW3  869   2.110   0.357   3.971 -0.9395 -1.0849  0.1050
  274SOL    MW4  870   2.146   0.398   4.039  0.1336  0.0599 -0.1352
  275SOL     OW  871   0.463   4.592   0.365  0.1898  0.3490 -0.1368
  275SOL    HW2  872   0.559   4.589   0.360  0.4019  0.7732  2.4217
  275SOL    HW3  873   0.441   4.536   0.440 -1.3578  2.0485  0.7623
  275SOL    MW4  874   0.473   4.584   0.374  0.3664  0.8255 -0.5669
  276SOL     OW  875   1.067   1.894   0.144 -0.0520 -0.1640  0.4610
  276SOL    HW2  876   1.039   1.915   0.233  1.3129  1.6456  0.5237
  276SOL    HW3  877   0.987   1.900   0.091 -0.8731 -1.2530  1.5253
  276SOL    MW4  878   1.053   1.898   0.148 -0.1186  0.3278 -0.5729
  277SOL     OW  879   2.734   2.725   0.221 -0.1596  0.5744 -0.0753
  277SOL    HW2  880   2.654   2.701   0.267 -0.4622  0.3746 -0.6826
  277SOL    HW3  881   2.792   2.759   0.288 -0.7209  0.6292  0.3891
  277SOL    MW4  882   2.731   2.726   0.236  0.0311 -0.3195 -0.2789
  278SOL     OW  883   1.819   5.518   3.925  0.6382 -0.6692  0.1636
  278SOL    HW2  884   1.837   5.536   4.017 -0.8831 -0.7183  0.5104
  278SOL    HW3  885   1.798   5.604   3.888 -1.9136 -0.9599  0.6843
  278SOL    MW4  886   1.818   5.532   3.932  0.4851 -0.1185 -0.5449
  279SOL     OW  887   5.271   0.169   6.300  0.0270  0.3737  0.0229
  279SOL    HW2  888   5.355   0.186   6.258  1.2550 -0.7543  1.9092
  279SOL    HW3  889   5.238   0.090   6.255  0.7079 -0.0717  0.2881
  279SOL    MW4  890   5.278   0.161   6.288 -0.3575 -0.7236 -0.1565
  280SOL     OW  891   5.767   5.503   3.057  0.1082 -0.3651  0.6117
  280SOL    HW2  892   5.762   5.428   2.997 -0.3048 -0.7193  1.0818
  280SOL    HW3  893   5.843   5.485   3.112 -0.5960 -0.9716  1.4150
  280SOL    MW4  894   5.776   5.491   3.056  0.0240  0.1111 -0.3572
  281SOL     OW  895   0.090   0.698   0.420 -0.1566 -0.5401  0.1348
  281SOL    HW2  896   0.145   0.650   0.358  0.5217  0.9219 -0.4421
  281SOL    HW3  897   0.087   0.642   0.497 -0.3318 -2.0213 -0.9059
  281SOL    MW4  898   0.097   0.685   0.422 -0.0814 -0.5633  0.2282
  282SOL     OW  899   0.333   2.293   3.274  0.3572 -0.2065 -0.0114
  282SOL    HW2  900   0.322   2.360   3.207 -0.5495  1.9228  2.1360
  282SOL    HW3  901   0.402   2.326   3.331 -0.2729 -0.9430  1.2375
  282SOL    MW4  902   0.340   2.306   3.273 -0.0456  0.4651 -0.0018
  283SOL     OW  903   3.879   3.383   5.263  0.0691 -0.3917 -0.1993
  283SOL    HW2  904   3.879   3.298   5.219 -0.7104 -0.6605  0.2976
  283SOL    HW3  905   3.965   3.389   5.304  0.9682  0.0188 -2.0173
  283SOL    MW4  906   3.890   3.372   5.262  0.2377 -0.0351  0.2802
  284SOL     OW  907   6.383   2.200   4.944  0.8462 -0.1195  0.3391
  284SOL    HW2  908   6.478   2.210   4.937  0.7735  0.5634  0.2915
  284SOL    HW3  909   6.354   2.276   4.993 -0.1465  1.9610 -3.1296
  284SOL    MW4  910   6.392   2.211   4.949 -0.2379  0.1670 -0.2734
  285SOL     OW  911   0.186   5.297   2.546 -0.5454  0.2478 -0.2738
  285SOL    HW2  912   0.150   5.339   2.468 -0.6362  0.3711 -0.1655
  285SOL    HW3  913   0.218   5.369   2.600  0.0745  0.1265 -0.4728
  285SOL    MW4  914   0.186   5.312   2.543 -0.5227  0.8935 -0.7409
  286SOL     OW  915   4.187   0.519   0.737  0.2023  0.1321 -0.7277
  286SOL    HW2  916   4.141   0.576   0.798  1.7222 -0.4932  1.0900
  286SOL    HW3  917   4.238   0.578   0.681  0.7813  0.6254  0.2995
  286SOL    MW4  918   4.188   0.534   0.737 -0.1130  0.1662 -0.5472
  287SOL     OW  919   4.613   2.640   2.008 -0.0177  0.2783  0.3914
  287SOL    HW2  920   4.662   2.653   2.089 -0.3390  0.5409  0.5481
  287SOL    HW3  921   4.614   2.726   1.966  2.1699 -0.3723 -1.0626
  287SOL    MW4  922   4.620   2.653   2.013  0.3664 -0.2305 -0.0483
  288SOL     OW  923   3.564   5.645   3.916  0.2516  0.5109 -0.3671
  288SOL    HW2  924   3.599   5.727   3.949 -0.1000  0.1631  0.9242
  288SOL    HW3  925   3.524   5.603   3.992 -2.2686  0.5070 -1.5973
  288SOL    MW4  926   3.563   5.650   3.930  0.1664 -0.4502  0.1739
  289SOL     OW  927   2.955   4.147   5.597 -0.6847  0.3755  0.0455
  289SOL    HW2  928   2.969   4.052   5.597  0.3579  0.4696  2.2490
  289SOL    HW3  929   2.960   4.172   5.505 -1.0856 -1.7219 -0.5817
  289SOL    MW4  930   2.958   4.138   5.585  0.0370 -0.2447  0.3460
  290SOL     OW  931   1.527   1.220   4.990  0.8521 -0.6387  0.0113
  290SOL    HW2  932   1.472   1.295   4.969  0.8212 -0.2598  1.3559
  290SOL    HW3  933   1.584   1.250   5.060  2.6718 -1.0914 -1.2234
  290SOL    MW4  934   1.527   1.234   4.996 -0.4873  0.4254 -0.1702
  291SOL     OW  935   5.094   2.415   2.689  0.1884  0.0630 -0.2242
  291SOL    HW2  936   5.135   2.346   2.636 -0.7268  0.2507 -1.2138
  291SOL    HW3  937   5.110   2.388   2.779  2.5322  0.1631 -0.5349
  291SOL    MW4  938   5.102   2.402   2.694  0.0752 -0.7791  0.0993
  292SOL     OW  939   3.181   1.527   3.386 -0.2814  0.2155  0.4689
  292SOL    HW2  940   3.103   1.480   3.417 -0.7206  0.9056  0.4280
  292SOL    HW3  941   3.147   1.601   3.337  0.4102 -0.3544 -0.9256
  292SOL    MW4  942   3.166   1.530   3.384  0.7246  0.6375  0.0949
  293SOL     OW  943   1.579   1.907   4.248  0.2471  0.4194 -0.3158
  293SOL    HW2  944   1.577   2.002   4.263  1.4195  0.3850  0.1855
  293SOL    HW3  945   1.647   1.875   4.306 -0.0963 -0.7388 -0.5231
  293SOL    MW4  946   1.588   1.916   4.258 -0.0980  0.3350  0.6979
  294SOL     OW  947   4.951   5.590   4.335  0.3856 -0.5723  0.5461
  294SOL    HW2  948   4.866   5.616   4.298  0.8375 -0.1815 -0.2349
  294SOL    HW3  949   5.003   5.563   4.259  1.1574 -0.2384  0.9491
  294SOL    MW4  950   4.946   5.590   4.320 -0.0340 -0.1321  0.1258
  295SOL     OW  951   5.579   4.347   1.646  0.0182 -0.5067  1.0603
  295SOL    HW2  952   5.552   4.434   1.674  0.6266 -0.2159  0.7688
  295SOL    HW3  953   5.674   4.346   1.658  0.0998 -0.8912  0.4391
  295SOL    MW4  954   5.588   4.358   1.651 -0.2820 -0.4085  0.1478
  296SOL     OW  955   2.846   0.115   6.208  0.3974  0.0079  0.4074
  296SOL    HW2  956   2.758   0.146   6.190  0.5912  1.3356  1.6360
  296SOL    HW3  957   2.870   0.066   6.129 -1.4114 -0.3842  0.0542
  296SOL    MW4  958   2.838   0.113   6.195 -0.3207  0.6505 -0.3928
  297SOL     OW  959   5.296   6.389   2.300  0.0167  0.0466  0.1010
  297SOL    HW2  960   5.322   6.301   2.271 -1.3397 -0.3108 -0.0947
  297SOL    HW3  961   5.371   6.444   2.278  0.6851 -0.9681 -0.2551
  297SOL    MW4  962   5.309   6.385   2.293  0.6906 -0.2542 -0.0044
  298SOL     OW  963   2.863   3.725   1.663 -0.4578 -0.4543  0.3294
  298SOL    HW2  964   2.956   3.705   1.649 -0.6584 -2.1119  1.1160
  298SOL    HW3  965   2.816   3.662   1.608 -1.1394  1.2324 -1.0985
  298SOL    MW4  966   2.869   3.714   1.654  0.5837 -0.0448 -0.1298
  299SOL     OW  967   2.841   2.779   2.755  0.0296  0.0541 -0.0721
  299SOL    HW2  968   2.749   2.777   2.731  0.3295  2.5780 -1.9020
  299SOL    HW3  969   2.874   2.860   2.716  2.6164  0.1862  2.0731
  299SOL    MW4  970   2.833   2.790   2.747  0.3380 -0.2510 -0.3452
  300SOL     OW  971   0.414   2.910   3.645 -0.0696 -0.5685 -0.3657
  300SOL    HW2  972   0.491   2.929   3.698 -0.3456  0.7193 -0.3734
  300SOL    HW3  973   0.374   2.834   3.687  0.4913 -0.4506  0.4149
  300SOL    MW4  974   0.419   2.903   3.658 -0.2165  0.0908 -0.4431
  301SOL     OW  975   4.192   5.874   5.786 -0.2785 -0.0220 -0.9936
  301SOL    HW2  976   4.125   5.914   5.731  0.9815  0.2256 -2.4081
  301SOL    HW3  977   4.217   5.944   5.848 -1.3228 -0.1319 -0.4314
  301SOL    MW4  978   4.187   5.889   5.787  0.0412  0.2823 -0.2372
  302SOL     OW  979   3.772   4.167   2.886 -0.4386 -0.3973 -0.1087
  302SOL    HW2  980   3.799   4.257   2.867 -1.3839 -0.4157 -1.8074
  302SOL    HW3  981   3.852   4.116   2.880  0.0181  0.2497  0.3378
  302SOL    MW4  982   3.786   4.172   2.883 -0.0548  0.0778  0.3822
  303SOL     OW  983   3.633   2.317   1.180 -0.4224 -0.9666 -0.2158
  303SOL    HW2  984   3.653   2.233   1.220  0.3314 -0.4620  0.5239
  303SOL    HW3  985   3.717   2.364   1.180 -0.7271 -0.3995 -1.0456
  303SOL    MW4  986   3.647   2.312   1.185 -0.4817  0.3082 -0.2179
  304SOL     OW  987   3.919   5.301   2.545  0.1018  0.0959  0.4015
  304SOL    HW2  988   3.922   5.254   2.628  2.2678 -0.1428  0.2455
  304SOL    HW3  989   3.873   5.382   2.565  0.4276 -0.0345  1.7932
  304SOL    MW4  990   3.913   5.305   2.559  0.1747  0.4728 -0.3936
  305SOL     OW  991   3.052   0.339   5.216  0.3601 -0.1980  0.2662
  305SOL    HW2  992   3.137   0.323   5.255  1.2774  0.7043 -1.2633
  305SOL    HW3  993   3.044   0.273   5.147  0.9337  1.1729 -1.1837
  305SOL    MW4  994   3.062   0.328   5.212  0.9596 -0.2941 -0.3912
  306SOL     OW  995   2.748   3.710   5.604  0.4443 -0.0275 -0.7728
  306SOL    HW2  996   2.777   3.625   5.571 -1.2469 -1.1244  0.3558
  306SOL    HW3  997   2.722   3.759   5.526 -0.1303 -1.1990 -1.3445
  306SOL    MW4  998   2.748   3.705   5.590 -0.4614 -0.6689  0.3003
  307SOL     OW  999   2.419   5.895   5.732  0.0143 -0.7540  0.1595
  307SOL    HW2 1000   2.447   5.983   5.756  0.5061 -0.6681 -0.6675
  307SOL    HW3 1001   2.378   5.906   5.646 -1.1231 -1.1373  0.6383
  307SOL    MW4 1002   2.418   5.908   5.724  0.6954  0.3687 -0.2596
  308SOL     OW 1003   3.727   3.726   5.908 -0.1417 -0.4612  0.5062
  308SOL    HW2 1004   3.665   3.665   5.867 -0.2610  1.0517 -1.7322
  308SOL    HW3 1005   3.676   3.806   5.919  0.8834  0.2094  0.4336
  308SOL    MW4 1006   3.712   3.728   5.904 -0.1919  0.5920  0.4341
  309SOL     OW 1007   0.205   5.707   5.874 -0.0605  0.3863  0.4562
  309SOL    HW2 1008   0.277   5.644   5.866  0.7722  1.4811 -0.9418
  309SOL    HW3 1009   0.224   5.754   5.955  1.1956  1.1168 -0.2351
  309SOL    MW4 1010   0.217   5.705   5.884  0.0714  0.8016  0.1676
  310SOL     OW 1011   4.957   1.710   4.309  0.4324 -0.0623 -0.1099
  310SOL    HW2 1012   4.943   1.793   4.263 -0.5348  0.5729  1.2581
  310SOL    HW3 1013   5.029   1.668   4.262  2.1009  2.3153  0.1252
  310SOL    MW4 1014   4.965   1.716   4.297 -0.9533 -0.1702  0.4097
  311SOL     OW 1015   4.485   3.102   0.481  0.3040 -0.2371 -0.3627
  311SOL    HW2 1016   4.553   3.130   0.543 -0.8835  0.1309  0.8091
  311SOL    HW3 1017   4.530   3.040   0.423  1.9732  0.9551 -0.4529
  311SOL    MW4 1018   4.500   3.098   0.481  0.3261 -0.0524  0.0255
  312SOL     OW 1019   5.286   3.621   4.719  0.4320  0.3171  0.0871
  312SOL    HW2 1020   5.347   3.602   4.648  0.3296 -0.2189  0.1397
  312SOL    HW3 1021   5.319   3.571   4.793 -0.5907 -0.7155 -0.1390
  312SOL    MW4 1022   5.299   3.612   4.719  0.1884  0.5918 -0.0604
  313SOL     OW 1023   5.335   1.673   0.894  0.6830 -0.3635  0.0002
  313SOL    HW2 1024   5.361   1.588   0.929  1.7925  0.1364  0.4080
  313SOL    HW3 1025   5.251   1.692   0.937 -0.0046 -1.6047 -0.7097
  313SOL    MW4 1026   5.327   1.665   0.904  0.1195 -0.3742 -0.6240
  314SOL     OW 1027   1.476   5.989   3.821 -0.2671  0.6160  0.3545
  314SOL    HW2 1028   1.530   5.920   3.859 -0.5864  0.9875  1.5334
  314SOL    HW3 1029   1.539   6.056   3.793 -0.0316  0.4224  0.4203
  314SOL    MW4 1030   1.492   5.989   3.822 -0.0052  0.3132  0.2721
  315SOL     OW 1031   4.791   3.006   3.815 -0.4792  0.2915 -1.1394
  315SOL    HW2 1032   4.712   3.050   3.782 -1.0352 -0.7387 -1.2420
  315SOL    HW3 1033   4.759   2.946   3.882  0.4571  1.1788  0.1461
  315SOL    MW4 1034   4.776   3.003   3.819  0.0241 -0.2920  0.4946
  316SOL     OW 1035   2.099   5.456   3.176 -0.0836 -0.2839  0.0097
  316SOL    HW2 1036   2.038   5.399   3.223 -1.1277  1.2648  0.6101
  316SOL    HW3 1037   2.172   5.468   3.236 -1.1218  1.1749  1.0278
  316SOL    MW4 1038   2.100   5.450   3.190 -0.5345  0.1919 -0.6095
  317SOL     OW 1039   0.331   3.589   4.360 -0.0270  0.5407 -0.0281
  317SOL    HW2 1040   0.305   3.651   4.428  0.1759  0.5680  0.0258
  317SOL    HW3 1041   0.411   3.549   4.393  0.1481  0.6521 -0.3097
  317SOL    MW4 1042   0.338   3.592   4.373  0.2185  0.4928  0.1070
  318SOL     OW 1043   1.901   0.717   1.655 -0.1494 -0.0081 -0.6329
  318SOL    HW2 1044   1.850   0.795   1.676 -0.8024 -0.6920  0.3932
  318SOL    HW3 1045   1.992   0.743   1.674 -0.5342 -0.0520  1.5768
  318SOL    MW4 1046   1.907   0.731   1.661  0.1338  0.3092  0.2977
  319SOL     OW 1047   2.590   4.429   0.046  0.0743  0.0844 -0.0453
  319SOL    HW2 1048   2.680   4.448   0.075  0.3598 -1.1268 -0.0675
  319SOL    HW3 1049   2.578   4.482  -0.033  0.6635  0.4907  0.1318
  319SOL    MW4 1050   2.601   4.439   0.039  0.2347  0.0173  0.5071
  320SOL     OW 1051   4.687   3.392   2.905 -0.1720 -0.4422  0.0683
  320SOL    HW2 1052   4.704   3.343   2.824 -1.8912 -1.2672  0.1502
  320SOL    HW3 1053   4.720   3.480   2.888 -0.8002 -0.5067 -1.6798
  320SOL    MW4 1054   4.693   3.397   2.892 -0.3381  0.1130 -0.9799
  321SOL     OW 1055   3.788   1.801   1.259 -0.8487  0.2147 -0.4770
  321SOL    HW2 1056   3.779   1.720   1.209 -1.1156  0.3562 -0.6630
  321SOL    HW3 1057   3.877   1.832   1.240 -0.3946 -0.5331  0.3579
  321SOL    MW4 1058   3.799   1.794   1.250 -0.0363 -0.3264 -0.1917
  322SOL     OW 1059   0.550   3.528   4.504 -0.1597 -0.2065 -0.3665
  322SOL    HW2 1060   0.554   3.604   4.562  3.0643  0.7412 -1.6185
  322SOL    HW3 1061   0.551   3.453   4.564 -0.0994  0.7432  0.8700
  322SOL    MW4 1062   0.551   3.528   4.520 -0.2964 -0.7358  0.2485
  323SOL     OW 1063   1.827   3.857   2.463 -0.0684  0.7875  0.8063
  323SOL    HW2 1064   1.891   3.835   2.531  1.6206 -0.3935 -1.0718
  323SOL    HW3 1065   1.877   3.902   2.396 -1.3478  0.4953 -0.4001
  323SOL    MW4 1066   1.842   3.860   2.464 -0.0452 -0.0366 -0.8966
  324SOL     OW 1067   4.278   3.946   1.472  0.1105 -0.0126  0.1043
  324SOL    HW2 1068   4.227   3.877   1.429 -0.3611 -0.7510  1.7562
  324SOL    HW3 1069   4.214   4.015   1.489  0.3700  0.4257 -0.6538
  324SOL    MW4 1070   4.262   3.946   1.469  0.0931  0.3136 -0.2918
  325SOL     OW 1071   3.424   2.606   5.812 -0.0266  0.1903 -0.2357
  325SOL    HW2 1072   3.381   2.612   5.727  0.9929  0.1618 -0.7661
  325SOL    HW3 1073   3.506   2.654   5.802  0.7595 -0.9715  0.2972
  325SOL    MW4 1074   3.429   2.613   5.800  0.0284 -0.2905  0.3886
  326SOL     OW 1075   2.398   2.642   4.256  0.0572 -0.1310 -0.6419
  326SOL    HW2 1076   2.410   2.547   4.260 -0.9932 -0.2421  1.5253
  326SOL    HW3 1077   2.406   2.663   4.163 -1.4714 -2.5921 -1.4283
  326SOL    MW4 1078   2.401   2.632   4.244 -0.2837  0.2986 -0.6775
  327SOL     OW 1079   3.653   5.181   0.264  0.3145 -0.1299  0.2458
  327SOL    HW2 1080   3.659   5.276   0.256 -1.1551 -0.0860 -0.7854
  327SOL    HW3 1081   3.604   5.154   0.186 -1.1715 -1.4893  1.5819
  327SOL    MW4 1082   3.647   5.190   0.252 -0.2293 -0.0230  0.0872
  328SOL     OW 1083   5.519   5.224   1.847 -0.5582 -0.1590 -0.2524
  328SOL    HW2 1084   5.596   5.170   1.827  0.6184  1.2405  0.2961
  328SOL    HW3 1085   5.508   5.217   1.942  2.1228  3.5392  0.5765
  328SOL    MW4 1086   5.528   5.216   1.857  0.5942  0.0625 -0.6872
  329SOL     OW 1087   3.328   1.293   3.945  0.0998 -0.1373  0.5093
  329SOL    HW2 1088   3.238   1.302   3.975 -0.2908  1.0369 -0.8975
  329SOL    HW3 1089   3.321   1.270   3.853  1.2640 -1.6829  0.7618
  329SOL    MW4 1090   3.315   1.291   3.937 -0.4498 -0.0572  0.3146
  330SOL     OW 1091   1.167   4.330   2.089  0.7340 -0.3100  0.4426
  330SOL    HW2 1092   1.173   4.281   2.171 -0.0637 -0.7079  0.2851
  330SOL    HW3 1093   1.073   4.337   2.073  0.8741  0.0454 -0.2673
  330SOL    MW4 1094   1.155   4.324   2.097  0.0005 -0.3744  0.1288
  331SOL     OW 1095   2.428   4.518   0.265 -0.3997  0.1508  0.3116
  331SOL    HW2 1096   2.440   4.444   0.325 -2.4465 -1.1800 -0.7764
  331SOL    HW3 1097   2.482   4.497   0.189 -0.6665 -0.0325  0.1711
  331SOL    MW4 1098   2.437   4.506   0.263 -0.0957 -0.0193 -0.0244
  332SOL     OW 1099   1.116   5.437   4.659 -0.0759 -0.0033  0.7040
  332SOL    HW2 1100   1.182   5.450   4.590  0.4864 -1.3230  0.9624
  332SOL    HW3 1101   1.157   5.471   4.738 -0.2314  0.3730  0.6255
  332SOL    MW4 1102   1.130   5.443   4.660 -0.6706 -0.1932  0.3502
  333SOL     OW 1103   6.015   5.101   2.706  0.0265 -0.1186  0.3850
  333SOL    HW2 1104   6.022   5.027   2.766 -0.6798  0.6389  1.4374
  333SOL    HW3 1105   5.947   5.076   2.644  0.3930 -0.6875  0.1984
  333SOL    MW4 1106   6.007   5.088   2.706  0.6451  0.1671 -0.2579
  334SOL     OW 1107   5.499   2.556   4.804 -0.4082 -0.2346  0.0604
  334SOL    HW2 1108   5.527   2.490   4.868 -2.9577 -0.3919  1.1510
  334SOL    HW3 1109   5.505   2.639   4.852  2.1722  0.3589 -1.1042
  334SOL    MW4 1110   5.503   2.558   4.819 -0.1573 -0.7097 -0.2209
  335SOL     OW 1111   3.147   3.696   1.533  0.5201 -0.3109  0.1676
  335SOL    HW2 1112   3.092   3.686   1.455  1.2160 -0.6899 -0.2860
  335SOL    HW3 1113   3.147   3.791   1.549  1.2121 -0.1107 -0.9242
  335SOL    MW4 1114   3.140   3.708   1.525  0.9563  0.2338 -0.1591
  336SOL     OW 1115   3.318   1.366   4.726  0.1969  0.5580 -0.2892
  336SOL    HW2 1116   3.246   1.339   4.669  0.4211 -1.0726  0.1566
  336SOL    HW3 1117   3.390   1.387   4.666  0.1343 -0.2336 -0.6548
  336SOL    MW4 1118   3.318   1.366   4.711 -0.1321 -0.3746  0.3089
  337SOL     OW 1119   3.275   4.530   4.948 -0.3754  0.5524 -0.2781
  337SOL    HW2 1120   3.247   4.583   4.875 -0.6419  1.2992  0.3558
  337SOL    HW3 1121   3.342   4.471   4.911  1.5192  2.7605 -0.5886
  337SOL    MW4 1122   3.280   4.529   4.934 -0.4897  0.4495  0.0330
  338SOL     OW 1123   0.862   4.483   5.810 -0.4197 -0.0133 -0.7100
  338SOL    HW2 1124   0.943   4.526   5.837  0.0402 -1.8456  1.1154
  338SOL    HW3 1125   0.875   4.464   5.717  1.7142 -1.1426 -0.2550
  338SOL    MW4 1126   0.875   4.486   5.801 -1.0443  0.7085  0.2177
  339SOL     OW 1127   3.128   4.071   5.937 -0.1114 -0.5437  0.5262
  339SOL    HW2 1128   3.184   4.001   5.971  0.5590 -0.6886 -0.7898
  339SOL    HW3 1129   3.161   4.086   5.848 -1.6801 -0.0904 -0.0060
  339SOL    MW4 1130   3.140   4.064   5.930  0.2760  0.7476  0.2539
  340SOL     OW 1131   3.510   1.826   5.715 -0.0971  0.1302 -0.2107
  340SOL    HW2 1132   3.578   1.796   5.654  0.5972  1.9740 -0.3948
  340SOL    HW3 1133   3.553   1.830   5.800 -0.6784 -1.0460  0.1691
  340SOL    MW4 1134   3.524   1.822   5.718  0.5830 -0.1661  0.5603
  341SOL     OW 1135   2.435   1.258   0.425 -0.1734 -0.1410  0.2219
  341SOL    HW2 1136   2.427   1.269   0.519  0.1333 -1.1324  0.3715
  341SOL    HW3 1137   2.483   1.176   0.414 -0.8107 -0.3987 -0.7975
  341SOL    MW4 1138   2.440   1.249   0.436  0.5552  0.0810 -0.5322
  342SOL     OW 1139   1.402   0.927   0.982 -0.1465 -0.3053  0.5930
  342SOL    HW2 1140   1.424   0.992   1.049 -0.0305  0.1133  0.1637
  342SOL    HW3 1141   1.338   0.972   0.926 -0.8405 -0.9254  0.8707
  342SOL    MW4 1142   1.396   0.942   0.983  0.2811  0.3881 -0.1714
  343SOL     OW 1143   6.008   4.997   6.214 -0.2077  0.0351  0.3460
  343SOL    HW2 1144   6.006   4.948   6.131 -0.8704  0.5320  0.0610
  343SOL    HW3 1145   5.916   4.999   6.242 -0.0954  0.5573  0.6782
  343SOL    MW4 1146   5.995   4.991   6.206  0.0966 -1.1752  0.4586
  344SOL     OW 1147   0.354   4.952   5.754 -0.3424 -0.2127 -0.3456
  344SOL    HW2 1148   0.422   4.917   5.697 -0.3547 -0.2894 -0.3138
  344SOL    HW3 1149   0.388   5.037   5.783 -0.2246 -0.2869 -0.2644
  344SOL    MW4 1150   0.368   4.959   5.750  0.3220  0.1831  0.3950
  345SOL     OW 1151   2.898   3.118   0.255 -0.6686  0.0246 -0.2374
  345SOL    HW2 1152   2.965   3.133   0.188 -0.8944  0.0015 -0.4654
  345SOL    HW3 1153   2.930   3.042   0.303 -0.7352 -0.2418 -0.6087
  345SOL    MW4 1154   2.911   3.110   0.253 -0.5435 -0.9300 -0.3454
  346SOL     OW 1155   5.713   1.963   1.719  0.2082 -0.0161 -0.6957
  346SOL    HW2 1156   5.671   1.879   1.705 -1.3338  0.8594 -1.6022
  346SOL    HW3 1157   5.714   2.004   1.632 -0.6579  1.5917  0.0048
  346SOL    MW4 1158   5.708   1.958   1.705  0.4310 -0.5074  0.1652
  347SOL     OW 1159   5.165   5.647   5.428  0.0111 -0.3611  0.0093
  347SOL    HW2 1160   5.099   5.660   5.496  1.5163 -2.1063  1.9037
  347SOL    HW3 1161   5.210   5.731   5.422 -3.2494  1.4943 -2.5488
  347SOL    MW4 1162   5.162   5.660   5.436  0.0681  0.2513 -0.0962
  348SOL     OW 1163   4.662   3.754   1.577 -0.2511 -0.1722 -0.3271
  348SOL    HW2 1164   4.586   3.697   1.589 -0.6973  0.4894  0.0851
  348SOL    HW3 1165   4.625   3.843   1.579  0.6798  0.2193  1.1593
  348SOL    MW4 1166   4.647   3.758   1.579  0.5311 -0.3343  0.6240
  349SOL     OW 1167   5.375   4.773   5.530  0.1801 -0.1701  0.4593
  349SOL    HW2 1168   5.288   4.746   5.499  0.0366  0.8506 -0.0798
  349SOL    HW3 1169   5.428   4.694   5.526 -0.4019 -0.5321 -0.4186
  349SOL    MW4 1170   5.370   4.759   5.525 -0.4937 -0.4016  0.4752
  350SOL     OW 1171   3.013   0.434   3.312  0.3663 -0.2021  0.3214
  350SOL    HW2 1172   3.046   0.439   3.402 -0.9982 -2.4152  1.0107
  350SOL    HW3 1173   2.928   0.391   3.320 -0.1146  0.2180 -1.9773
  350SOL    MW4 1174   3.006   0.429   3.325 -0.3448  0.4814 -0.5945
  351SOL     OW 1175   6.191   5.553   0.845 -0.4639 -0.4042  0.3278
  351SOL    HW2 1176   6.142   5.546   0.763 -0.9454 -0.2529  0.5947
  351SOL    HW3 1177   6.191   5.465   0.881  0.8912 -0.7543 -0.4656
  351SOL    MW4 1178   6.184   5.541   0.839  0.8721 -0.0582  0.2518
  352SOL     OW 1179   0.145   6.078   5.157 -1.0256 -0.1962  0.4140
  352SOL    HW2 1180   0.157   6.113   5.245 -0.6835  1.7600 -0.3715
  352SOL    HW3 1181   0.183   5.990   5.161  0.1681  0.3437  1.8589
  352SOL    MW4 1182   0.151   6.071   5.169  0.4496 -0.1013  0.2990
  353SOL     OW 1183   0.382   1.504   2.235  0.2425  0.0061  0.0789
  353SOL    HW2 1184   0.388   1.411   2.257  1.5043  0.0351 -0.0479
  353SOL    HW3 1185   0.442   1.515   2.161 -0.7513  0.7178 -0.6477
  353SOL    MW4 1186   0.391   1.493   2.228 -0.3066  0.3448 -0.3709
  354SOL     OW 1187   4.846   2.718   0.177 -0.1812  0.2807  0.2120
  354SOL    HW2 1188   4.875   2.642   0.227  2.5876  0.6253 -0.7364
  354SOL    HW3 1189   4.802   2.681   0.101 -0.7717 -0.3016  0.8194
  354SOL    MW4 1190   4.844   2.703   0.174  0.0848 -0.3311 -0.7365
  355SOL     OW 1191   5.600   0.590   5.649  0.0782  0.3795 -0.3128
  355SOL    HW2 1192   5.561   0.657   5.704  0.1482 -0.3790  0.6859
  355SOL    HW3 1193   5.692   0.588   5.674  1.0261  2.5175 -3.0138
  355SOL    MW4 1194   5.607   0.598   5.659 -0.3129  0.1007 -0.2066
  356SOL     OW 1195   6.020   6.360   6.413 -0.0917 -0.1269 -0.0650
  356SOL    HW2 1196   6.042   6.427   6.479  0.5648 -0.3138 -0.0839
  356SOL    HW3 1197   6.083   6.289   6.430 -0.6006 -0.6181 -0.2255
  356SOL    MW4 1198   6.031   6.360   6.424 -0.0105 -0.0914 -0.3486
  357SOL     OW 1199   4.126   4.915   0.599 -0.0829  0.2519  0.3875
  357SOL    HW2 1200   4.084   4.996   0.628 -0.4535 -0.3978  1.7406
  357SOL    HW3 1201   4.216   4.922   0.632  0.6890  1.2425 -1.7424
  357SOL    MW4 1202   4.132   4.927   0.607  0.2483  0.7097  0.3237
  358SOL     OW 1203   6.120   2.533   3.497 -0.1319  0.2924  0.1941
  358SOL    HW2 1204   6.085   2.604   3.551 -0.5486  0.4980 -0.3301
  358SOL    HW3 1205   6.064   2.458   3.517 -0.0011  0.2435  0.3809
  358SOL    MW4 1206   6.108   2.532   3.507 -0.6267  0.5228  0.1704
  359SOL     OW 1207   0.440   0.166   0.795 -0.6714 -0.4353 -0.5956
  359SOL    HW2 1208   0.489   0.216   0.861  1.4554  0.6271 -2.8203
  359SOL    HW3 1209   0.397   0.097   0.845  1.4346 -0.1664  1.8120
  359SOL    MW4 1210   0.441   0.164   0.810  0.5821 -0.0462 -0.4005
  360SOL     OW 1211   2.624   3.283   4.410 -0.4960 -0.4689 -0.2297
  360SOL    HW2 1212   2.622   3.265   4.316 -0.3814  1.3925 -0.6442
  360SOL    HW3 1213   2.644   3.199   4.450  1.5212 -0.9438 -2.0133
  360SOL    MW4 1214   2.627   3.270   4.403 -0.2530 -0.0318  0.5277
  361SOL     OW 1215   2.273   4.980   3.890 -0.4276  0.0985 -0.1900
  361SOL    HW2 1216   2.315   4.903   3.851  0.8685  0.0372  1.2168
  361SOL    HW3 1217   2.181   4.972   3.866 -0.0148 -0.9660 -1.5129
  361SOL    MW4 1218   2.266   4.969   3.882 -0.0888 -0.2734 -0.1439
  362SOL     OW 1219   3.586   4.166   5.100  0.1096  0.0473 -0.0327
  362SOL    HW2 1220   3.492   4.146   5.094  0.4146 -1.1842 -1.1117
  362SOL    HW3 1221   3.590   4.243   5.157 -1.3948 -1.2086  1.9336
  362SOL    MW4 1222   3.574   4.173   5.107 -0.2959  0.1154  0.2881
  363SOL     OW 1223   4.613   2.393   4.143 -0.2789  0.3861 -0.0202
  363SOL    HW2 1224   4.622   2.415   4.050 -0.6955  0.2954 -0.0858
  363SOL    HW3 1225   4.667   2.458   4.189 -0.7003  0.9223 -0.2783
  363SOL    MW4 1226   4.621   2.405   4.137  0.0443  0.1868 -0.0643
  364SOL     OW 1227   0.210   0.031   4.502  0.0091 -0.7262 -0.3504
  364SOL    HW2 1228   0.284   0.089   4.488 -0.7801  1.4570  3.1300
  364SOL    HW3 1229   0.243  -0.034   4.565 -0.4661 -1.0434 -0.4231
  364SOL    MW4 1230   0.224   0.030   4.509  0.1387 -0.6931 -0.0686
  365SOL     OW 1231   3.474   2.901   0.118  0.0772 -0.2527  0.1774
  365SOL    HW2 1232   3.495   2.812   0.090 -0.1731 -0.2356 -0.0686
  365SOL    HW3 1233   3.553   2.931   0.164 -0.1807 -0.9290  1.0739
  365SOL    MW4 1234   3.487   2.893   0.120 -0.4010 -0.5629  0.3014
  366SOL     OW 1235   4.114   4.291   2.085 -0.3003 -0.0689 -0.0681
  366SOL    HW2 1236   4.198   4.274   2.044  0.0489  1.1056  0.1096
  366SOL    HW3 1237   4.052   4.237   2.037  0.3890 -0.1303 -0.9130
  366SOL    MW4 1238   4.117   4.282   2.073 -0.3975 -0.2481 -0.0708
  367SOL     OW 1239   3.750   5.095   3.007  0.1666  0.2097  0.5348
  367SOL    HW2 1240   3.719   5.159   3.072 -0.0215  0.7594 -0.0853
  367SOL    HW3 1241   3.822   5.050   3.050  0.4897  1.0407  0.8808
  367SOL    MW4 1242   3.755   5.098   3.021  0.7141 -0.1306  0.1307
  368SOL     OW 1243   4.920   0.584   1.862  0.5869  0.0874 -0.3912
  368SOL    HW2 1244   4.879   0.577   1.776  0.6036 -1.3275 -0.3172
  368SOL    HW3 1245   4.917   0.494   1.896 -0.2879  0.7791  1.4845
  368SOL    MW4 1246   4.914   0.571   1.855  0.3889  0.1062  0.3708
  369SOL     OW 1247   3.083   0.896   3.817 -0.5199  0.2313  0.1275
  369SOL    HW2 1248   3.133   0.915   3.738  0.4946  0.1715  0.7335
  369SOL    HW3 1249   3.007   0.953   3.812 -0.1822  0.6305 -0.6211
  369SOL    MW4 1250   3.080   0.906   3.806 -0.0249 -0.0443  0.5495
  370SOL     OW 1251   4.428   0.757   1.733 -0.6792 -0.3876 -0.6894
  370SOL    HW2 1252   4.469   0.787   1.651 -0.3281  0.5221 -0.1985
  370SOL    HW3 1253   4.337   0.738   1.708 -0.4609 -0.5614 -1.3839
  370SOL    MW4 1254   4.421   0.759   1.719  0.6528  0.1034  0.3182
  371SOL     OW 1255   4.179   5.169   3.800 -0.4393  0.1930 -0.0425
  371SOL    HW2 1256   4.095   5.214   3.806 -0.2458  0.3817  2.1357
  371SOL    HW3 1257   4.167   5.103   3.733 -1.4408  2.0061 -1.7639
  371SOL    MW4 1258   4.167   5.166   3.792  0.2768 -0.1775  0.3728
  372SOL     OW 1259   5.426   1.893   0.517  0.2348  0.7449 -0.6539
  372SOL    HW2 1260   5.455   1.829   0.583 -0.5390  0.0061 -1.0147
  372SOL    HW3 1261   5.455   1.977   0.552 -1.2518  0.5247  1.2630
  372SOL    MW4 1262   5.434   1.895   0.530 -0.2758 -0.0988  0.0921
  373SOL     OW 1263   6.027   1.021   1.630  0.3382  0.6613  0.2840
  373SOL    HW2 1264   6.047   1.102   1.583 -1.2168  0.6672 -0.4264
  373SOL    HW3 1265   6.028   1.047   1.723 -0.7650  1.6746  0.0418
  373SOL    MW4 1266   6.030   1.035   1.636  0.0370  0.1438  0.0839
  374SOL     OW 1267   4.262   0.382   4.895 -1.1946  0.2602 -0.5414
  374SOL    HW2 1268   4.317   0.381   4.973 -1.0968  1.4290 -0.5825
  374SOL    HW3 1269   4.323   0.396   4.823 -1.4768  0.9307 -0.6499
  374SOL    MW4 1270   4.277   0.384   4.896  0.3531 -0.6070  0.2107
  375SOL     OW 1271   5.079   3.752   5.753 -0.0955  0.6629  0.0521
  375SOL    HW2 1272   5.125   3.685   5.805  1.2060  1.6722  0.2588
  375SOL    HW3 1273   5.094   3.833   5.800  2.0464  1.8203 -2.3350
  375SOL    MW4 1274   5.087   3.754   5.766  0.0345  0.2674 -0.2137
  376SOL     OW 1275   2.886   6.344   5.097 -0.5159  0.0163  0.1719
  376SOL    HW2 1276   2.981   6.347   5.085 -0.5927  0.8216 -0.3009
  376SOL    HW3 1277   2.870   6.261   5.142  0.5029  0.3015  1.0975
  376SOL    MW4 1278   2.896   6.334   5.102  0.0169 -0.3296  0.6457
  377SOL     OW 1279   1.794   0.524   2.235 -0.3020 -0.0422  0.0269
  377SOL    HW2 1280   1.887   0.546   2.233 -0.4473  0.6946  0.7438
  377SOL    HW3 1281   1.753   0.586   2.176 -0.6124  1.1547  1.4474
  377SOL    MW4 1282   1.801   0.535   2.227 -0.1555 -0.4100  0.0217
  378SOL     OW 1283   2.286   1.963   0.638  0.6904  0.8681 -0.1587
  378SOL    HW2 1284   2.252   1.957   0.727  0.9764  1.3582 -0.0166
  378SOL    HW3 1285   2.308   1.872   0.615 -1.4402  0.4012 -0.5593
  378SOL    MW4 1286   2.285   1.950   0.647  0.3199 -0.4342  0.7311
  379SOL     OW 1287   3.784   5.914   5.332 -0.2132  0.3334  0.4725
  379SOL    HW2 1288   3.868   5.952   5.357  0.5358 -0.8547 -0.1310
  379SOL    HW3 1289   3.740   5.897   5.415  1.1731 -1.2407  0.9378
  379SOL    MW4 1290   3.789   5.917   5.347 -0.4487  0.0038 -0.3120
  380SOL     OW 1291   5.478   2.971   5.976 -0.3353 -0.5579  0.9022
  380SOL    HW2 1292   5.453   3.046   6.031  1.1839  0.2386  0.5681
  380SOL    HW3 1293   5.404   2.911   5.983 -0.7578  0.0951  2.7641
  380SOL    MW4 1294   5.465   2.973   5.984 -0.0088 -0.2013  0.0195
  381SOL     OW 1295   2.414   5.743   0.697  0.1316 -0.2600  0.7828
  381SOL    HW2 1296   2.492   5.787   0.730 -0.2629  1.8327 -0.8691
  381SOL    HW3 1297   2.375   5.805   0.635 -1.8422 -1.9816  0.1638
  381SOL    MW4 1298   2.419   5.757   0.693  0.1906  0.0031  0.1887
  382SOL     OW 1299   5.813   0.966   0.988  0.2894  0.0236  0.0237
  382SOL    HW2 1300   5.908   0.963   0.977  0.1763 -1.4364 -0.8177
  382SOL    HW3 1301   5.797   1.048   1.035  1.9539  0.3045  0.1710
  382SOL    MW4 1302   5.824   0.976   0.993  0.5938  0.2506 -0.0127
  383SOL     OW 1303   3.437   1.905   1.252 -0.6799 -0.3363  0.0615
  383SOL    HW2 1304   3.461   1.832   1.195 -1.4576 -1.0053  0.5667
  383SOL    HW3 1305   3.517   1.957   1.259 -0.3324 -0.7099 -0.9348
  383SOL    MW4 1306   3.450   1.902   1.245 -0.3958  0.4944 -0.1969
  384SOL     OW 1307   3.393   0.487   6.219  0.4569 -0.1238 -0.0977
  384SOL    HW2 1308   3.353   0.505   6.134  1.0516  1.7574 -0.0221
  384SOL    HW3 1309   3.432   0.400   6.209  0.8998  0.2335 -1.9190
  384SOL    MW4 1310   3.393   0.478   6.207 -0.0129  0.3525  0.6127
  385SOL     OW 1311   2.212   5.257   3.012  0.1603  0.1794 -0.3438
  385SOL    HW2 1312   2.154   5.254   2.936  0.3619  3.0121 -0.7109
  385SOL    HW3 1313   2.172   5.322   3.070  0.4336 -1.3328  1.6678
  385SOL    MW4 1314   2.199   5.266   3.010 -0.3279 -0.3131 -0.3945
  386SOL     OW 1315   2.872   2.014   5.978  0.2172  0.3448 -0.2630
  386SOL    HW2 1316   2.851   1.921   5.982  1.6279 -0.0248 -0.9376
  386SOL    HW3 1317   2.790   2.056   5.953  0.0636 -0.9538 -2.1418
  386SOL    MW4 1318   2.858   2.008   5.976 -0.0702 -0.1534 -0.4873
  387SOL     OW 1319   3.439   0.944   0.657 -0.9595 -0.1125 -0.3285
  387SOL    HW2 1320   3.370   0.964   0.593  0.0008 -2.5002 -2.2670
  387SOL    HW3 1321   3.445   0.848   0.656  1.6008 -0.0201  0.6293
  387SOL    MW4 1322   3.431   0.934   0.648  0.2350 -0.4457  0.0276
  388SOL     OW 1323   3.589   2.123   0.151  0.4208 -0.0915  0.5733
  388SOL    HW2 1324   3.553   2.205   0.119  0.5039 -0.9523 -2.0049
  388SOL    HW3 1325   3.675   2.146   0.186  0.3645  0.9468  0.0553
  388SOL    MW4 1326   3.596   2.137   0.151  0.3127  0.0362 -0.3321
  389SOL     OW 1327   5.407   1.873   5.105 -0.2965  0.1657  1.0160
  389SOL    HW2 1328   5.491   1.916   5.087  0.1445 -0.5419  1.3450
  389SOL    HW3 1329   5.427   1.779   5.100 -0.7930 -0.0264  2.3209
  389SOL    MW4 1330   5.421   1.866   5.102  0.3286  0.1618 -0.0181
  390SOL     OW 1331   6.119   0.720   2.628 -0.5553 -0.8002 -0.2220
  390SOL    HW2 1332   6.041   0.681   2.666  0.3185 -3.0189 -0.5446
  390SOL    HW3 1333   6.191   0.687   2.682  0.4680 -1.9096 -2.1704
  390SOL    MW4 1334   6.118   0.710   2.640 -0.1858  0.3565  0.0252
  391SOL     OW 1335   4.626   2.267   5.587  0.5213 -0.8443 -0.0182
  391SOL    HW2 1336   4.552   2.261   5.527  0.3270 -0.4159  0.1726
  391SOL    HW3 1337   4.586   2.287   5.672  0.7106 -2.3182  0.4450
  391SOL    MW4 1338   4.611   2.269   5.591  0.2411 -0.2733  0.8437
  392SOL     OW 1339   4.848   1.689   0.701  0.0249  0.2866 -0.4373
  392SOL    HW2 1340   4.889   1.605   0.719 -1.0528  0.1824  1.8747
  392SOL    HW3 1341   4.916   1.754   0.720  0.9260 -0.0094 -2.4301
  392SOL    MW4 1342   4.862   1.687   0.706 -0.2501  1.0456  0.7917
  393SOL     OW 1343   5.110   2.839   5.361  0.5235  0.0898  0.2052
  393SOL    HW2 1344   5.194   2.842   5.315  0.5717 -1.4005  0.1554
  393SOL    HW3 1345   5.124   2.777   5.433 -0.8114 -1.0442 -0.4583
  393SOL    MW4 1346   5.123   2.831   5.364 -0.6175 -0.2895  0.0218
  394SOL     OW 1347   5.048   6.137   4.845 -0.0055 -0.2827 -0.1882
  394SOL    HW2 1348   5.136   6.123   4.881  0.1009 -0.0916 -0.3687
  394SOL    HW3 1349   5.060   6.127   4.750 -0.2624 -0.6834 -0.1816
  394SOL    MW4 1350   5.061   6.134   4.837  0.2492  0.0418  0.2442
  395SOL     OW 1351   1.221   4.034   0.667  0.3137 -0.2804  0.0766
  395SOL    HW2 1352   1.213   3.939   0.681 -0.1459 -0.3908 -0.8361
  395SOL    HW3 1353   1.270   4.065   0.743 -1.5288 -0.8834  1.6053
  395SOL    MW4 1354   1.227   4.025   0.679 -0.8710  0.3181  0.1432
  396SOL     OW 1355   2.817   5.701   1.528 -0.0222 -0.0568 -0.2358
  396SOL    HW2 1356   2.732   5.744   1.540  0.1157  0.0710  0.2771
  396SOL    HW3 1357   2.877   5.750   1.584  0.2823 -0.4780 -0.1920
  396SOL    MW4 1358   2.814   5.713   1.537  0.4333  0.3272 -0.1648
  397SOL     OW 1359   2.560   5.555   4.342  0.4021  0.3425 -0.1311
  397SOL    HW2 1360   2.510   5.475   4.353  0.9692  0.0956  0.7977
  397SOL    HW3 1361   2.622   5.535   4.271 -0.1291  0.3059 -0.5857
  397SOL    MW4 1362   2.562   5.542   4.334 -0.4800  0.7506  0.2079
  398SOL     OW 1363   1.635   0.857   4.365  0.5958 -0.2726 -0.3080
  398SOL    HW2 1364   1.698   0.816   4.424  0.1625 -1.9271 -0.9288
  398SOL    HW3 1365   1.637   0.803   4.286  0.4348  1.3039 -1.4378
  398SOL    MW4 1366   1.643   0.844   4.362 -0.0926 -0.5967  0.1212
  399SOL     OW 1367   1.611   2.358   4.481  0.3074 -0.6674 -0.0907
  399SOL    HW2 1368   1.591   2.325   4.569 -0.1256  0.8337  0.4078
  399SOL    HW3 1369   1.540   2.419   4.461  1.2101  0.1827 -0.8269
  399SOL    MW4 1370   1.599   2.362   4.490 -0.8070  0.1274 -0.6957
  400SOL     OW 1371   0.357   1.309   5.607  0.4794  0.2335 -0.3760
  400SOL    HW2 1372   0.443   1.338   5.639  0.4816 -1.7091  1.5847
  400SOL    HW3 1373   0.304   1.389   5.607  1.9746  1.2827 -0.6462
  400SOL    MW4 1374   0.362   1.324   5.612  0.0710  0.0176  0.5519
  401SOL     OW 1375   3.164   0.803   1.702  0.5201 -0.1294 -0.2354
  401SOL    HW2 1376   3.207   0.724   1.667  1.3815 -0.0712  0.6558
  401SOL    HW3 1377   3.218   0.875   1.670  0.0081  0.0710 -0.6511
  401SOL    MW4 1378   3.177   0.802   1.693  0.0600 -0.1179  0.6072
  402SOL     OW 1379   5.048   0.329   5.747  0.0570 -0.5595  0.0082
  402SOL    HW2 1380   5.001   0.406   5.714 -0.9582 -1.4226 -0.6136
  402SOL    HW3 1381   5.139   0.344   5.722 -0.0624  0.5856  0.1865
  402SOL    MW4 1382   5.054   0.341   5.739 -0.4681 -1.0539 -0.3374
  403SOL     OW 1383   4.893   5.357   2.839  0.0126  0.3736  0.1065
  403SOL    HW2 1384   4.899   5.311   2.923  0.7332 -0.4682 -0.3937
  403SOL    HW3 1385   4.824   5.310   2.791  0.8069 -0.2582 -0.4380
  403SOL    MW4 1386   4.884   5.345   2.844  0.0568 -0.0248  0.2867
  404SOL     OW 1387   2.934   6.120   5.472  0.6209 -0.0154 -0.1397
  404SOL    HW2 1388   2.851   6.075   5.492 -0.1817  1.6997  0.6017
  404SOL    HW3 1389   2.997   6.081   5.532 -0.0928 -0.0841  0.5858
  404SOL    MW4 1390   2.931   6.109   5.483 -0.1707 -0.1291 -0.1159
  405SOL     OW 1391   0.273   6.258   4.721  0.2482 -0.1436  0.0254
  405SOL    HW2 1392   0.313   6.172   4.709 -1.8538 -1.0377 -1.0908
  405SOL    HW3 1393   0.248   6.260   4.814 -0.6123 -1.2076 -0.1606
  405SOL    MW4 1394   0.275   6.247   4.732 -0.2984 -0.3100  0.6854
  406SOL     OW 1395   5.615   5.933   1.786 -0.1676  0.0603 -0.0697
  406SOL    HW2 1396   5.533   5.900   1.822 -0.0774 -1.8131 -1.4404
  406SOL    HW3 1397   5.592   6.016   1.744 -1.3810 -0.4764 -0.4967
  406SOL    MW4 1398   5.601   5.939   1.785  0.8341 -0.1041  0.4342
  407SOL     OW 1399   5.668   0.413   4.061  0.2697  1.0862 -0.3810
  407SOL    HW2 1400   5.648   0.464   3.983 -1.4682 -0.0029 -0.7056
  407SOL    HW3 1401   5.606   0.444   4.127  0.7564  0.9928  0.1341
  407SOL    MW4 1402   5.657   0.424   4.060  0.1735 -1.0482 -0.4704
  408SOL     OW 1403   5.649   3.669   0.685 -0.3040  0.1767 -0.1473
  408SOL    HW2 1404   5.741   3.679   0.707  0.9562 -2.4684 -3.3867
  408SOL    HW3 1405   5.614   3.612   0.754  0.6783  0.5043  0.6518
  408SOL    MW4 1406   5.656   3.663   0.697 -0.1103 -0.2777 -0.1797
  409SOL     OW 1407   4.146   2.278   2.234 -0.8443  0.4282 -0.4877
  409SOL    HW2 1408   4.106   2.255   2.150  2.7199  1.3143 -2.6422
  409SOL    HW3 1409   4.226   2.225   2.239 -0.1321  1.5647  1.5805
  409SOL    MW4 1410   4.151   2.268   2.224 -0.8055  0.1302 -0.2023
  410SOL     OW 1411   6.159   2.941   4.078  0.3659 -0.3184 -0.2430
  410SOL    HW2 1412   6.237   2.978   4.118 -0.1756  0.3449  0.2217
  410SOL    HW3 1413   6.089   3.003   4.100  0.0631  0.1341 -2.3016
  410SOL    MW4 1414   6.160   2.954   4.086 -0.8328 -0.0008 -0.2438
  411SOL     OW 1415   2.969   3.812   3.676  0.2463  0.6169 -0.0810
  411SOL    HW2 1416   3.062   3.811   3.652  1.8375  0.7053  4.9052
  411SOL    HW3 1417   2.944   3.904   3.668  0.4415  0.5653 -1.6554
  411SOL    MW4 1418   2.978   3.824   3.672  0.4684 -0.0626 -0.1662
  412SOL     OW 1419   1.234   5.054   2.200 -0.3589 -0.2720  0.0434
  412SOL    HW2 1420   1.263   5.123   2.140 -0.6850  0.6414  0.9004
  412SOL    HW3 1421   1.288   5.066   2.278 -0.2623 -1.1360  0.1108
  412SOL    MW4 1422   1.245   5.065   2.203 -0.2044  0.1426  0.2877
  413SOL     OW 1423   1.858   0.958   3.308  0.0194 -0.3067 -0.4194
  413SOL    HW2 1424   1.870   0.870   3.343  0.1366  0.2091  0.8900
  413SOL    HW3 1425   1.893   1.016   3.376 -1.9736  0.8481 -0.2923
  413SOL    MW4 1426   1.864   0.954   3.322  0.2650 -0.3482  0.1160
  414SOL     OW 1427   0.190   6.268   0.385  0.3919 -0.1798 -0.2939
  414SOL    HW2 1428   0.285   6.264   0.371  0.8402  1.1018  1.9731
  414SOL    HW3 1429   0.163   6.350   0.344  0.4978  0.0859  0.1604
  414SOL    MW4 1430   0.199   6.278   0.378  0.1155  0.1800  0.0736
  415SOL     OW 1431   1.618   5.683   1.323 -0.3922 -0.1545 -0.0062
  415SOL    HW2 1432   1.613   5.588   1.312 -2.8382 -0.0137 -0.6947
  415SOL    HW3 1433   1.684   5.711   1.260  1.3540 -1.4635  1.1333
  415SOL    MW4 1434   1.626   5.674   1.313  0.6812 -0.2974 -0.2236
  416SOL     OW 1435   5.410   2.211   2.984 -0.2279 -0.4312  0.4479
  416SOL    HW2 1436   5.379   2.147   3.048  1.2636 -0.8274  0.8182
  416SOL    HW3 1437   5.471   2.266   3.033 -0.2898  0.2807 -0.2538
  416SOL    MW4 1438   5.414   2.210   2.999 -0.3852  0.4950 -0.0344
  417SOL     OW 1439   0.730   4.348   1.458 -0.0512 -0.3695  0.0851
  417SOL    HW2 1440   0.717   4.290   1.383  2.2594 -3.1906  1.6406
  417SOL    HW3 1441   0.821   4.333   1.484 -0.0554  2.2835  2.0796
  417SOL    MW4 1442   0.740   4.338   1.451 -0.4209 -0.0565 -0.4950
  418SOL     OW 1443   1.879   4.899   0.577  0.2815  0.1864 -0.4623
  418SOL    HW2 1444   1.811   4.951   0.620  0.1565  0.0183 -0.4539
  418SOL    HW3 1445   1.871   4.812   0.616  0.2951  0.0841 -0.6832
  418SOL    MW4 1446   1.869   4.894   0.587  0.1728 -0.1242 -0.0557
  419SOL     OW 1447   2.396   6.218   5.089  0.4012 -0.2736  0.2402
  419SOL    HW2 1448   2.336   6.188   5.021  0.6934  0.0079 -0.1445
  419SOL    HW3 1449   2.381   6.313   5.094 -0.5103 -0.4632  1.4393
  419SOL    MW4 1450   2.386   6.227   5.081 -0.0050  0.5770 -0.0505
  420SOL     OW 1451   1.106   3.457   1.466 -0.1575  0.2898 -0.2359
  420SOL    HW2 1452   1.054   3.531   1.497  1.0115  0.5346  1.2279
  420SOL    HW3 1453   1.041   3.387   1.452 -1.1170  1.1970 -0.4509
  420SOL    MW4 1454   1.090   3.457   1.468 -0.5382 -0.0002  0.0087
  421SOL     OW 1455   1.047   2.810   0.244 -0.4066  0.3393  0.1600
  421SOL    HW2 1456   0.979   2.792   0.178  0.6610 -1.6085 -0.5026
  421SOL    HW3 1457   1.079   2.897   0.222 -1.6431  0.6558 -0.4756
  421SOL    MW4 1458   1.042   2.819   0.232  0.5924 -0.3457  0.5117
  422SOL     OW 1459   1.342   5.595   3.786 -0.4922  0.0249  0.3291
  422SOL    HW2 1460   1.251   5.565   3.792 -0.1348 -2.3034 -3.0859
  422SOL    HW3 1461   1.394   5.519   3.813  0.4013 -0.6581 -2.9290
  422SOL    MW4 1462   1.337   5.581   3.790 -0.5194 -0.1191 -0.6568
  423SOL     OW 1463   6.046   3.245   0.097 -0.3010 -0.1442 -0.7205
  423SOL    HW2 1464   6.118   3.185   0.076 -1.0088 -1.4124  0.3284
  423SOL    HW3 1465   6.011   3.271   0.012  0.7949 -0.2281 -1.2190
  423SOL    MW4 1466   6.051   3.241   0.083  0.6646 -0.1785  0.3963
  424SOL     OW 1467   4.263   2.620   1.853  0.2649 -0.5233 -0.3204
  424SOL    HW2 1468   4.292   2.549   1.909  0.0682 -0.3593 -0.0116
  424SOL    HW3 1469   4.308   2.604   1.769 -0.0654 -1.2157 -0.3682
  424SOL    MW4 1470   4.273   2.609   1.849 -0.2465  0.1443  0.7103
  425SOL     OW 1471   4.769   4.393   1.590 -0.1259 -0.3359  0.0878
  425SOL    HW2 1472   4.811   4.422   1.671 -0.9376  1.4345 -0.0621
  425SOL    HW3 1473   4.817   4.314   1.565 -0.6385 -1.6835  2.9241
  425SOL    MW4 1474   4.781   4.387   1.598  0.4326 -0.0612 -0.4198
  426SOL     OW 1475   5.096   1.116   1.775 -0.0135 -0.5223  0.2850
  426SOL    HW2 1476   5.102   1.091   1.867  1.1078 -1.4009 -0.0062
  426SOL    HW3 1477   5.002   1.115   1.756 -0.5358  2.4139  2.0982
  426SOL    MW4 1478   5.084   1.112   1.784 -0.3428  0.3780 -0.1455
  427SOL     OW 1479   2.928   3.095   1.749 -0.5789  0.2708 -0.1817
  427SOL    HW2 1480   2.914   3.189   1.757 -0.3129  0.3267 -0.3795
  427SOL    HW3 1481   3.008   3.086   1.697  0.3612 -0.0539  1.2789
  427SOL    MW4 1482   2.936   3.106   1.743 -0.6704  0.1495  0.6210
  428SOL     OW 1483   3.394   3.806   2.181  0.4506 -0.1777  0.2783
  428SOL    HW2 1484   3.456   3.805   2.108 -0.7306 -0.3542 -0.7644
  428SOL    HW3 1485   3.317   3.761   2.147 -0.6779  1.0189  1.1565
  428SOL    MW4 1486   3.392   3.800   2.167  0.9168 -0.3081 -0.0376
  429SOL     OW 1487   2.446   5.885   4.688 -0.0308 -0.5622  0.2200
  429SOL    HW2 1488   2.355   5.904   4.709  0.0364  0.1955 -0.1410
  429SOL    HW3 1489   2.467   5.944   4.616  0.2012 -2.0385 -0.9734
  429SOL    MW4 1490   2.437   5.895   4.681 -0.0143  0.0418 -0.3185
  430SOL     OW 1491   4.406   1.626   2.587  0.5361 -0.0342 -0.4083
  430SOL    HW2 1492   4.486   1.575   2.594 -0.0681 -0.9068  0.4527
  430SOL    HW3 1493   4.419   1.699   2.648  0.2183 -0.8218  0.6165
  430SOL    MW4 1494   4.418   1.629   2.596  0.2600  0.1443 -0.3311
  431SOL     OW 1495   0.496   6.231   2.458 -0.0831  0.1171 -0.1372
  431SOL    HW2 1496   0.555   6.208   2.386  0.6360 -1.7862  0.9927
  431SOL    HW3 1497   0.424   6.169   2.450 -1.3203  1.5388 -0.6709
  431SOL    MW4 1498   0.494   6.220   2.447 -0.5670 -0.0931 -0.3191
  432SOL     OW 1499   4.528   0.253   4.481 -0.3474  0.0694 -0.2540
  432SOL    HW2 1500   4.501   0.343   4.463  1.3100  0.8381  0.7844
  432SOL    HW3 1501   4.605   0.240   4.426 -0.8149 -0.8614 -0.6966
  432SOL    MW4 1502   4.535   0.264   4.472 -0.2159  0.4828  0.1810
  433SOL     OW 1503   5.516   4.151   0.465 -0.0898 -0.3759  0.5931
  433SOL    HW2 1504   5.463   4.149   0.545 -0.7744  1.3825  0.2136
  433SOL    HW3 1505   5.595   4.198   0.490 -0.1414 -0.1477  0.3299
  433SOL    MW4 1506   5.519   4.157   0.479  0.3085  0.0068  0.1681
  434SOL     OW 1507   0.117   1.050   1.402 -0.0541 -0.0632 -0.4830
  434SOL    HW2 1508   0.107   0.972   1.456  0.4980 -0.4343 -0.9010
  434SOL    HW3 1509   0.074   1.028   1.320 -0.7071  0.4220 -0.2783
  434SOL    MW4 1510   0.110   1.037   1.398  0.0222  0.5088  0.2267
  435SOL     OW 1511   0.489   0.082   2.286  0.2504  0.2908 -1.1325
  435SOL    HW2 1512   0.556   0.141   2.320 -1.2496  0.5670  1.6427
  435SOL    HW3 1513   0.523  -0.006   2.301 -0.2474  0.4154  0.9876
  435SOL    MW4 1514   0.502   0.078   2.292 -0.2780  0.2917  0.0478
  436SOL     OW 1515   2.308   6.060   3.511 -0.2680 -0.2642 -0.0615
  436SOL    HW2 1516   2.232   6.085   3.458  0.8754  1.8327 -0.8570
  436SOL    HW3 1517   2.315   6.130   3.576  1.1583 -0.2202 -0.2318
  436SOL    MW4 1518   2.298   6.073   3.513  0.7172  0.2098 -0.4255
  437SOL     OW 1519   3.341   4.461   2.456 -0.0931 -0.1413 -0.0238
  437SOL    HW2 1520   3.420   4.500   2.419 -0.9063 -0.2521 -1.9737
  437SOL    HW3 1521   3.270   4.490   2.400 -1.6082  0.5619  2.1137
  437SOL    MW4 1522   3.342   4.470   2.444 -0.1136  0.1551 -0.3159
  438SOL     OW 1523   5.842   3.392   4.058 -0.0064 -0.2093 -0.9162
  438SOL    HW2 1524   5.784   3.368   3.985 -0.5139  1.2875 -1.0483
  438SOL    HW3 1525   5.788   3.380   4.136 -0.1868  0.2602 -0.9651
  438SOL    MW4 1526   5.827   3.387   4.058  1.1708 -0.7514  0.3227
  439SOL     OW 1527   4.707   5.016   0.062 -0.1426  0.1813  0.1708
  439SOL    HW2 1528   4.763   5.094   0.054 -1.3244  1.0165 -0.1741
  439SOL    HW3 1529   4.620   5.051   0.080 -0.7944 -1.0425 -0.5361
  439SOL    MW4 1530   4.703   5.031   0.063 -0.0386  0.2611 -0.0661
  440SOL     OW 1531   4.619   4.288   5.591  0.1683  0.5875 -0.2785
  440SOL    HW2 1532   4.713   4.302   5.591  0.3665 -0.5403  1.0348
  440SOL    HW3 1533   4.590   4.318   5.677 -0.2081 -1.6229  0.4248
  440SOL    MW4 1534   4.627   4.294   5.602 -0.0887 -0.2462 -0.1082
  441SOL     OW 1535   5.385   1.320   3.915  0.7016  0.2264 -0.4885
  441SOL    HW2 1536   5.340   1.237   3.902  1.6729 -0.3427 -0.2635
  441SOL    HW3 1537   5.324   1.386   3.880 -1.2073 -0.2930  1.6431
  441SOL    MW4 1538   5.371   1.318   3.909  0.0991 -0.4523  0.7642
  442SOL     OW 1539   1.001   5.318   6.364  0.0138 -0.3807 -0.3122
  442SOL    HW2 1540   1.037   5.268   6.437  0.3661  0.7949  0.3491
  442SOL    HW3 1541   0.912   5.283   6.352 -0.4571  0.1163  1.3994
  442SOL    MW4 1542   0.994   5.307   6.372  0.0774 -0.3392  0.6485
  443SOL     OW 1543   3.503   3.647   2.404 -0.7609 -0.0020  0.0946
  443SOL    HW2 1544   3.489   3.558   2.372 -0.6584  0.1777 -0.4559
  443SOL    HW3 1545   3.466   3.703   2.336 -3.0866  0.3569  1.5522
  443SOL    MW4 1546   3.496   3.642   2.391  0.2505  0.4633  0.7525
  444SOL     OW 1547   2.273   2.373   0.743 -0.3508  0.2647 -0.6779
  444SOL    HW2 1548   2.306   2.410   0.661  1.5658 -0.7035 -0.3751
  444SOL    HW3 1549   2.194   2.324   0.717 -0.4298  0.9274 -1.7411
  444SOL    MW4 1550   2.267   2.371   0.729 -0.7018 -0.1886 -0.0252
  445SOL     OW 1551   0.818   4.940   5.456 -0.1291  0.1235 -0.3394
  445SOL    HW2 1552   0.817   5.021   5.506  2.5746 -0.1277  0.3069
  445SOL    HW3 1553   0.823   4.968   5.365 -1.4717  0.6277 -0.2728
  445SOL    MW4 1554   0.819   4.954   5.450 -0.5011  1.0166 -0.7398
  446SOL     OW 1555   3.163   2.698   2.478 -0.0635  0.0182 -0.1998
  446SOL    HW2 1556   3.236   2.657   2.431  0.6712 -0.2891  1.1456
  446SOL    HW3 1557   3.129   2.628   2.534  1.8714  1.3305  2.9288
  446SOL    MW4 1558   3.168   2.683   2.479 -0.5243 -0.1226  0.5169
  447SOL     OW 1559   5.472   4.635   2.472  0.0240 -0.0133  0.3038
  447SOL    HW2 1560   5.416   4.567   2.509  0.9690 -0.4487  0.9732
  447SOL    HW3 1561   5.547   4.587   2.437  0.3300  0.6258  0.0786
  447SOL    MW4 1562   5.474   4.619   2.472 -0.0019  0.2836  0.5614
  448SOL     OW 1563   3.403   1.213   1.845 -0.0982  0.5623  0.3363
  448SOL    HW2 1564   3.438   1.288   1.893 -0.6687  0.4563  0.9390
  448SOL    HW3 1565   3.461   1.141   1.868 -0.2846  0.5448  0.7613
  448SOL    MW4 1566   3.415   1.213   1.854 -0.6783 -0.1245  0.0507
  449SOL     OW 1567   5.103   0.719   2.812 -0.3753  0.1103  0.6312
  449SOL    HW2 1568   5.069   0.699   2.725  1.6037 -3.0515  0.4050
  449SOL    HW3 1569   5.172   0.784   2.796 -0.1513 -0.3104 -0.1585
  449SOL    MW4 1570   5.108   0.725   2.798  0.5896 -0.3091  0.3198
  450SOL     OW 1571   0.177   6.276   3.283 -0.4659  0.7085  0.5736
  450SOL    HW2 1572   0.112   6.346   3.276 -1.0928 -0.0065 -2.9703
  450SOL    HW3 1573   0.260   6.317   3.259 -0.5768  0.5798 -0.0561
  450SOL    MW4 1574   0.179   6.290   3.279  0.0487 -0.1209  0.7073
  451SOL     OW 1575   6.333   4.145   3.666 -0.1748 -0.0720  0.0113
  451SOL    HW2 1576   6.323   4.225   3.615  1.4924  0.5552  0.5838
  451SOL    HW3 1577   6.320   4.074   3.603  2.4929  0.6687 -1.5488
  451SOL    MW4 1578   6.330   4.146   3.651 -0.0487 -0.2184 -0.9135
  452SOL     OW 1579   1.650   5.689   4.442 -0.4295 -0.3115 -0.0740
  452SOL    HW2 1580   1.650   5.783   4.461 -0.9041 -0.5926  1.4831
  452SOL    HW3 1581   1.734   5.657   4.474  0.1665 -0.2792 -1.5303
  452SOL    MW4 1582   1.661   5.697   4.448 -0.4123  0.0842  0.0845
  453SOL     OW 1583   5.508   2.734   3.074  0.4123 -0.1085  1.0448
  453SOL    HW2 1584   5.600   2.718   3.095  0.1094 -1.9556  1.1646
  453SOL    HW3 1585   5.510   2.785   2.993  1.6048 -3.0545 -0.9713
  453SOL    MW4 1586   5.521   2.739   3.066 -0.3821  0.0707 -0.6243
  454SOL     OW 1587   1.786   0.832   4.059 -0.0820 -0.2663  0.3835
  454SOL    HW2 1588   1.741   0.751   4.082  2.6664 -2.5593 -1.5702
  454SOL    HW3 1589   1.862   0.834   4.117 -0.3364  1.2147  0.7139
  454SOL    MW4 1590   1.790   0.822   4.070  0.0737  0.2911 -0.2747
  455SOL     OW 1591   0.892   1.791   3.517 -0.0717 -0.0126  0.1800
  455SOL    HW2 1592   0.862   1.818   3.430  2.4784  0.1116 -0.7223
  455SOL    HW3 1593   0.869   1.864   3.575 -1.7092 -0.0579 -0.3672
  455SOL    MW4 1594   0.885   1.804   3.513 -0.0799 -0.4276  0.1613
  456SOL     OW 1595   2.139   5.403   6.359  0.5423 -0.0619  0.3876
  456SOL    HW2 1596   2.113   5.492   6.336  1.7787  0.2265  0.0109
  456SOL    HW3 1597   2.110   5.393   6.450 -1.6723 -0.1271 -0.2723
  456SOL    MW4 1598   2.132   5.414   6.368 -0.0133  0.1312 -0.3563
  457SOL     OW 1599   6.413   2.822   3.271 -0.5247 -0.4129 -0.5043
  457SOL    HW2 1600   6.441   2.905   3.233 -0.7446 -0.3407 -0.5153
  457SOL    HW3 1601   6.318   2.821   3.257 -0.5803 -0.4709 -0.1221
  457SOL    MW4 1602   6.404   2.833   3.264 -0.2242  0.0445  0.3048
  458SOL     OW 1603   5.315   5.276   1.445  0.0586 -0.4066 -0.0203
  458SOL    HW2 1604   5.266   5.338   1.499  0.8061  1.6349 -1.5526
  458SOL    HW3 1605   5.253   5.206   1.425 -1.8977  1.4944 -0.8993
  458SOL    MW4 1606   5.301   5.275   1.449  0.1027  0.0744  0.1061
  459SOL     OW 1607   5.763   4.968   4.844  0.1821  0.1495  0.1232
  459SOL    HW2 1608   5.720   4.944   4.762 -1.0080  1.2251  0.3871
  459SOL    HW3 1609   5.745   4.895   4.903  0.4795 -0.3313 -0.3745
  459SOL    MW4 1610   5.755   4.955   4.841 -0.2444 -0.2963 -0.4467
  460SOL     OW 1611   2.945   3.926   1.241  0.0306  0.0717  0.8236
  460SOL    HW2 1612   3.039   3.937   1.253 -0.1968 -0.1296  3.6693
  460SOL    HW3 1613   2.928   3.951   1.151  2.6706  0.9819  0.5053
  460SOL    MW4 1614   2.955   3.931   1.231  0.1536  0.2642  0.0167
  461SOL     OW 1615   0.985   0.043   3.864  0.1244 -0.0055 -0.2299
  461SOL    HW2 1616   0.929  -0.032   3.842  1.3463 -0.9813 -0.1265
  461SOL    HW3 1617   1.052   0.006   3.922 -0.7379  1.6962  1.9924
  461SOL    MW4 1618   0.987   0.028   3.868 -0.2733 -0.0399 -0.1308
  462SOL     OW 1619   1.369   3.892   3.844 -0.4040  0.0794 -0.6354
  462SOL    HW2 1620   1.314   3.944   3.902  2.6276  0.3949  2.2658
  462SOL    HW3 1621   1.340   3.915   3.755 -1.6344  3.8994  0.5958
  462SOL    MW4 1622   1.358   3.902   3.840  0.1513  0.3218 -0.9004
  463SOL     OW 1623   0.240   2.414   5.139 -0.2253  0.9895 -0.1132
  463SOL    HW2 1624   0.329   2.441   5.113 -0.3418 -0.1316 -1.7816
  463SOL    HW3 1625   0.223   2.464   5.219  1.9057  1.2425  0.2508
  463SOL    MW4 1626   0.250   2.424   5.146  0.0580 -0.4731  0.4789
  464SOL     OW 1627   5.270   0.010   4.106 -0.0513 -0.6336 -0.2887
  464SOL    HW2 1628   5.307  -0.034   4.029 -1.7535 -0.4358 -1.2529
  464SOL    HW3 1629   5.288  -0.050   4.178 -1.5502 -2.5566 -1.4303
  464SOL    MW4 1630   5.277  -0.004   4.106 -0.1050  0.1686  0.3821
  465SOL     OW 1631   2.665   2.152   2.839 -0.5517 -0.6480  0.3259
  465SOL    HW2 1632   2.610   2.127   2.913  0.3783  0.3676  1.4176
  465SOL    HW3 1633   2.604   2.168   2.767 -1.7934  1.1702  1.6964
  465SOL    MW4 1634   2.650   2.151   2.839 -0.2281 -0.3112 -0.2064
  466SOL     OW 1635   2.435   4.351   3.836  0.2503 -0.3913  0.3312
  466SOL    HW2 1636   2.491   4.428   3.846 -1.4740  1.3100 -2.0030
  466SOL    HW3 1637   2.493   4.285   3.797  1.3432  0.2632  0.7875
  466SOL    MW4 1638   2.450   4.352   3.832 -0.3136  0.0720  0.2664
  467SOL     OW 1639   4.582   4.483   4.798 -0.1688  0.1122 -0.2582
  467SOL    HW2 1640   4.513   4.450   4.855 -1.2322 -0.7851 -1.9653
  467SOL    HW3 1641   4.659   4.432   4.820 -0.9498 -1.2746 -0.6171
  467SOL    MW4 1642   4.583   4.472   4.808  0.4441  0.3108 -0.3030
  468SOL     OW 1643   2.068   2.102   4.317 -0.3197 -0.3504  0.1560
  468SOL    HW2 1644   2.010   2.169   4.354 -0.2069 -0.2249  0.1048
  468SOL    HW3 1645   2.024   2.019   4.337 -0.1326 -0.3017  0.7987
  468SOL    MW4 1646   2.054   2.100   4.324  0.4632 -0.6043  0.1303
  469SOL     OW 1647   1.495   3.618   2.927  0.6062  0.2000  0.2299
  469SOL    HW2 1648   1.425   3.683   2.921  0.2147 -0.1067  1.3269
  469SOL    HW3 1649   1.575   3.667   2.909  0.4223  1.1935  1.9574
  469SOL    MW4 1650   1.496   3.633   2.924 -0.3149 -0.0818  0.2585
  470SOL     OW 1651   5.657   2.612   4.247  0.1170 -0.1166 -0.3964
  470SOL    HW2 1652   5.663   2.650   4.335  0.5930  0.2484 -0.5770
  470SOL    HW3 1653   5.696   2.525   4.256 -0.7639 -0.4826 -0.0294
  470SOL    MW4 1654   5.663   2.606   4.260  0.2853 -0.5466  0.8444
  471SOL     OW 1655   6.157   0.631   6.068  0.2706  0.2971 -0.0009
  471SOL    HW2 1656   6.112   0.549   6.049  0.7884 -0.2687  1.1490
  471SOL    HW3 1657   6.105   0.671   6.139  0.8619  0.2349  0.4736
  471SOL    MW4 1658   6.144   0.626   6.075  0.3754 -0.1412  0.2565
  472SOL     OW 1659   3.821   1.702   3.514 -0.7768 -0.0387 -0.2408
  472SOL    HW2 1660   3.762   1.747   3.453 -0.6949  0.5661  0.1118
  472SOL    HW3 1661   3.908   1.709   3.474 -0.7248  0.3477 -0.0687
  472SOL    MW4 1662   3.825   1.709   3.501 -0.0371 -0.3444  0.0964
  473SOL     OW 1663   4.432   0.808   6.353 -0.1747  0.5447 -0.2018
  473SOL    HW2 1664   4.513   0.795   6.402 -0.7847  0.5940  0.8608
  473SOL    HW3 1665   4.369   0.839   6.419 -0.7349  1.6623 -1.2310
  473SOL    MW4 1666   4.434   0.810   6.368  0.4876  0.0971  0.0260
  474SOL     OW 1667   3.190   2.696   2.941 -0.1786 -0.2395  0.5425
  474SOL    HW2 1668   3.208   2.653   2.857 -1.4008 -4.3168  2.1258
  474SOL    HW3 1669   3.276   2.719   2.976  0.5267 -1.0843 -0.5681
  474SOL    MW4 1670   3.203   2.694   2.934 -0.1125 -0.1589  0.2245
  475SOL     OW 1671   1.764   5.916   3.596 -0.1026  0.5345 -0.5279
  475SOL    HW2 1672   1.774   5.885   3.506  1.6732 -0.1489 -0.1418
  475SOL    HW3 1673   1.810   6.000   3.597  2.3717 -0.7309  0.3264
  475SOL    MW4 1674   1.772   5.923   3.584  0.3428  0.0244 -0.2363
  476SOL     OW 1675   3.827   5.034   5.010 -0.5352  0.5802  0.6355
  476SOL    HW2 1676   3.773   4.964   4.973  0.9740  0.1945 -0.9563
  476SOL    HW3 1677   3.896   4.987   5.058 -0.5091  1.0309  1.0465
  476SOL    MW4 1678   3.829   5.018   5.012 -0.0376  0.1711  0.0178
  477SOL     OW 1679   5.452   0.223   2.234  0.4326  0.5516  0.0651
  477SOL    HW2 1680   5.378   0.281   2.254  0.6814  0.2648  1.9381
  477SOL    HW3 1681   5.463   0.231   2.139 -3.0179 -0.6075 -0.5971
  477SOL    MW4 1682   5.444   0.232   2.224 -0.1906  0.2522  0.3260
  478SOL     OW 1683   4.155   2.648   3.271 -0.2559 -0.0263  0.4273
  478SOL    HW2 1684   4.167   2.643   3.176  1.6295 -0.8264  0.6601
  478SOL    HW3 1685   4.157   2.742   3.290  0.4089  0.1049 -0.2274
  478SOL    MW4 1686   4.157   2.660   3.261 -0.2697 -1.0980 -0.2991
  479SOL     OW 1687   5.121   3.086   0.414 -0.6139  0.8030 -0.7788
  479SOL    HW2 1688   5.151   3.000   0.386 -0.5957  0.9381 -1.1983
  479SOL    HW3 1689   5.106   3.078   0.508 -1.5512  0.0745 -0.9761
  479SOL    MW4 1690   5.123   3.074   0.422  0.0167 -0.2777  0.0123
  480SOL     OW 1691   2.606   2.151   2.188  0.3493  0.6168  0.6658
  480SOL    HW2 1692   2.518   2.187   2.198 -0.4955 -1.5541  1.7861
  480SOL    HW3 1693   2.597   2.082   2.123  1.9049  2.2427 -1.4033
  480SOL    MW4 1694   2.594   2.147   2.181 -0.5279  0.2495  0.2375
  481SOL     OW 1695   4.151   1.392   6.181 -0.1674 -0.4806  0.1325
  481SOL    HW2 1696   4.151   1.298   6.202 -3.3561 -0.6374 -0.0762
  481SOL    HW3 1697   4.176   1.435   6.263  3.1788 -1.4360 -0.2254
  481SOL    MW4 1698   4.155   1.385   6.195 -0.2448 -0.5697 -0.3077
  482SOL     OW 1699   4.486   0.692   2.655  0.1003  0.0812  0.2540
  482SOL    HW2 1700   4.571   0.671   2.617  0.0795 -0.0397  0.2736
  482SOL    HW3 1701   4.481   0.787   2.653  0.2841  0.0929  0.3562
  482SOL    MW4 1702   4.496   0.702   2.650  0.0883 -0.0080  0.0308
  483SOL     OW 1703   5.747   0.659   4.611 -0.0290  0.3802  0.1315
  483SOL    HW2 1704   5.789   0.741   4.638  1.2235 -0.0331 -0.4588
  483SOL    HW3 1705   5.657   0.667   4.642  0.6858  0.9415  2.2231
  483SOL    MW4 1706   5.741   0.671   4.618 -0.2437 -0.5502 -0.2347
  484SOL     OW 1707   1.114   1.948   0.623 -0.3301 -0.1209  0.0012
  484SOL    HW2 1708   1.134   2.041   0.615 -0.7664  0.1134  1.3973
  484SOL    HW3 1709   1.144   1.909   0.541 -0.5595  1.3213 -0.7822
  484SOL    MW4 1710   1.121   1.955   0.611  0.6727 -0.5440 -0.0827
  485SOL     OW 1711   4.353   2.136   4.559  0.6924  0.0411  0.6847
  485SOL    HW2 1712   4.367   2.177   4.644  0.9628 -1.6964  1.5257
  485SOL    HW3 1713   4.280   2.075   4.574  0.8989 -0.4531 -0.2659
  485SOL    MW4 1714   4.345   2.133   4.572 -0.0734 -0.0205 -0.4144
  486SOL     OW 1715   1.407   1.019   5.147 -0.1520 -0.0999 -0.2766
  486SOL    HW2 1716   1.460   0.940   5.133 -0.3596 -0.5627  1.3567
  486SOL    HW3 1717   1.445   1.084   5.086  0.4055 -1.2587 -1.2123
  486SOL    MW4 1718   1.419   1.017   5.137  0.3678 -0.4015 -0.1287
  487SOL     OW 1719   1.996   5.298   3.916  0.0098  0.0408 -0.0560
  487SOL    HW2 1720   1.943   5.377   3.904 -0.2623  0.3776  2.6929
  487SOL    HW3 1721   2.082   5.331   3.941  0.0862 -0.5213  0.4310
  487SOL    MW4 1722   2.000   5.313   3.918  0.4818 -0.0834  0.6568
  488SOL     OW 1723   2.808   2.257   1.080  0.4779  0.3419  0.3759
  488SOL    HW2 1724   2.834   2.241   0.989 -0.9703 -2.2586  0.3209
  488SOL    HW3 1725   2.871   2.205   1.131 -0.4786 -0.5740  0.6453
  488SOL    MW4 1726   2.820   2.248   1.075 -0.1398 -0.1758 -0.0465
  489SOL     OW 1727   3.104   5.878   2.278  0.0681  0.3056 -0.6891
  489SOL    HW2 1728   3.068   5.790   2.267 -0.3905  0.5325 -1.0572
  489SOL    HW3 1729   3.063   5.911   2.358 -0.1011  0.3482 -0.7929
  489SOL    MW4 1730   3.094   5.871   2.287 -0.2063 -0.3051 -0.8510
  490SOL     OW 1731   3.809   5.318   0.668  0.1091 -0.0651  0.5934
  490SOL    HW2 1732   3.776   5.366   0.592 -0.5199 -1.1253  0.1602
  490SOL    HW3 1733   3.730   5.280   0.708  0.6251 -1.2421  0.5469
  490SOL    MW4 1734   3.794   5.319   0.664  0.0835  0.9428 -0.1156
  491SOL     OW 1735   2.329   3.781   1.672  0.0881 -0.0123  0.3400
  491SOL    HW2 1736   2.257   3.718   1.675  1.1122 -1.1530  2.2336
  491SOL    HW3 1737   2.294   3.853   1.618 -1.6258 -1.5090 -0.6942
  491SOL    MW4 1738   2.315   3.782   1.665  0.0055  0.2494  0.0048
  492SOL     OW 1739   1.251   2.985   2.527  0.0005 -0.5808  0.4473
  492SOL    HW2 1740   1.225   2.925   2.457  0.1262  0.3001 -0.3769
  492SOL    HW3 1741   1.311   2.934   2.581  0.7986 -0.9373 -0.7350
  492SOL    MW4 1742   1.256   2.970   2.524  0.0553  0.2024  0.0524
  493SOL     OW 1743   3.814   5.123   6.284 -0.2896  0.6115  0.4624
  493SOL    HW2 1744   3.766   5.076   6.353 -0.9350 -0.1024 -0.4476
  493SOL    HW3 1745   3.905   5.117   6.311 -0.2412 -1.8721  0.0424
  493SOL    MW4 1746   3.819   5.116   6.297 -0.0235 -0.2962 -0.4132
  494SOL     OW 1747   4.503   1.254   3.261  0.5400  0.2403  0.3746
  494SOL    HW2 1748   4.450   1.234   3.184 -1.8231  1.0859  1.6936
  494SOL    HW3 1749   4.541   1.340   3.242  1.1867 -0.2012 -0.4217
  494SOL    MW4 1750   4.501   1.263   3.248 -0.6174  0.0526 -0.1452
  495SOL     OW 1751   6.344   3.909   6.271 -0.0916 -0.5007 -0.9950
  495SOL    HW2 1752   6.404   3.835   6.274 -0.6043 -0.9013  1.8976
  495SOL    HW3 1753   6.397   3.982   6.238  1.4105 -1.3018 -0.4356
  495SOL    MW4 1754   6.358   3.909   6.267 -0.2082  0.0086 -0.3068
  496SOL     OW 1755   2.995   0.456   6.040 -0.1651  0.4612  0.0422
  496SOL    HW2 1756   2.996   0.383   6.102 -0.6602  0.6195  0.2363
  496SOL    HW3 1757   2.908   0.495   6.049 -2.0789 -2.2011 -3.9104
  496SOL    MW4 1758   2.984   0.451   6.049 -0.1073  0.0997 -0.4454
  497SOL     OW 1759   3.486   0.682   0.629  0.0787 -0.5677 -0.2221
  497SOL    HW2 1760   3.540   0.615   0.587 -0.4671 -1.5737  0.6270
  497SOL    HW3 1761   3.421   0.706   0.563  0.4294 -0.6961 -0.6168
  497SOL    MW4 1762   3.485   0.676   0.615 -0.1584 -0.6052  0.6276
  498SOL     OW 1763   5.994   0.265   0.882 -0.1085 -0.0851  0.3886
  498SOL    HW2 1764   5.908   0.225   0.891  0.2432 -0.4507  2.7034
  498SOL    HW3 1765   6.032   0.262   0.970  2.3859 -0.1548 -0.5932
  498SOL    MW4 1766   5.988   0.260   0.895  0.3030 -0.0383 -0.0253
  499SOL     OW 1767   6.210   2.861   5.761  0.0826  0.2806 -0.3633
  499SOL    HW2 1768   6.149   2.787   5.768 -0.4902  0.6997 -0.8263
  499SOL    HW3 1769   6.283   2.837   5.818 -0.3327 -0.4121 -0.1074
  499SOL    MW4 1770   6.211   2.848   5.770 -0.0835  0.2329  0.7441
  500SOL     OW 1771   3.641   3.753   0.333 -0.1286  0.4752  0.2144
  500SOL    HW2 1772   3.693   3.726   0.409  1.2624  0.3395 -0.7296
  500SOL    HW3 1773   3.695   3.821   0.292 -0.8018  0.4648 -0.7004
  500SOL    MW4 1774   3.655   3.758   0.338  0.1623  0.3059 -0.1695
  501SOL     OW 1775   2.050   4.830   1.154  0.5503  0.0981 -0.1118
  501SOL    HW2 1776   1.998   4.794   1.226 -0.9218  0.3753 -0.9922
  501SOL    HW3 1777   2.117   4.764   1.137 -0.1785 -0.7771  0.3500
  501SOL    MW4 1778   2.052   4.816   1.161 -0.4926  0.1635 -0.3040
  502SOL     OW 1779   2.822   6.087   0.186  0.3652 -0.4968 -0.4887
  502SOL    HW2 1780   2.819   6.181   0.167 -0.4617 -0.1075  1.3112
  502SOL    HW3 1781   2.734   6.055   0.163 -0.0177 -0.3928  0.7382
  502SOL    MW4 1782   2.810   6.095   0.180 -0.0526 -0.0080  0.2753
  503SOL     OW 1783   3.674   1.141   3.619  0.1552  0.6297 -0.5930
  503SOL    HW2 1784   3.654   1.101   3.535 -2.1794  1.0935 -0.3310
  503SOL    HW3 1785   3.663   1.235   3.604  2.0139  0.9273 -0.3118
  503SOL    MW4 1786   3.670   1.148   3.606  0.0203  0.2251 -0.6940
  504SOL     OW 1787   5.569   4.514   0.696 -0.0799 -0.0003 -0.0707
  504SOL    HW2 1788   5.638   4.580   0.690  0.3460 -0.4727 -0.4549
  504SOL    HW3 1789   5.491   4.557   0.660 -0.8569  1.6497  3.1401
  504SOL    MW4 1790   5.568   4.529   0.691 -0.2192  0.1505  0.8922
  505SOL     OW 1791   6.053   2.145   1.973  0.0971 -0.2877  0.1941
  505SOL    HW2 1792   6.038   2.109   1.886  0.4105  1.0683 -0.4543
  505SOL    HW3 1793   6.015   2.233   1.969  0.5293 -0.0337  1.2754
  505SOL    MW4 1794   6.046   2.152   1.961 -0.2646  0.2983  0.0035
  506SOL     OW 1795   5.860   2.098   5.715 -0.2417  0.0058  0.1563
  506SOL    HW2 1796   5.765   2.092   5.711 -0.1427 -1.7315 -1.2395
  506SOL    HW3 1797   5.887   2.111   5.624  0.8919 -1.4311  0.2416
  506SOL    MW4 1798   5.851   2.099   5.703 -0.5102 -0.0679  0.4861
  507SOL     OW 1799   5.628   2.651   1.320  0.4610 -0.3576  0.0851
  507SOL    HW2 1800   5.558   2.660   1.255  1.5551  1.3900 -0.9466
  507SOL    HW3 1801   5.583   2.649   1.404 -0.8585  3.0981 -0.3658
  507SOL    MW4 1802   5.613   2.652   1.322 -0.1793 -0.4555  0.2224
  508SOL     OW 1803   5.985   6.400   5.341  0.4178  0.1410  0.0376
  508SOL    HW2 1804   5.984   6.351   5.259 -1.3438  1.0339 -0.5100
  508SOL    HW3 1805   5.953   6.337   5.406  2.1471 -0.6768  0.1615
  508SOL    MW4 1806   5.981   6.385   5.339 -0.0868  0.4558  0.4037
  509SOL     OW 1807   4.480   1.187   1.672  0.1660 -0.2221  0.0457
  509SOL    HW2 1808   4.394   1.157   1.642 -0.4287  0.5651  0.9178
  509SOL    HW3 1809   4.482   1.164   1.765  1.3077 -1.1138 -0.1671
  509SOL    MW4 1810   4.469   1.180   1.680 -0.0390 -0.0401 -0.2159
  510SOL     OW 1811   5.694   3.622   2.229 -0.1591  0.0726 -0.1136
  510SOL    HW2 1812   5.608   3.600   2.192 -0.5412  0.0776  0.7456
  510SOL    HW3 1813   5.714   3.708   2.192 -0.4542  0.0013 -0.4448
  510SOL    MW4 1814   5.685   3.631   2.219 -0.1880  0.3736  0.2485
  511SOL     OW 1815   3.675   2.239   2.047  0.0207 -0.1292  0.0458
  511SOL    HW2 1816   3.639   2.327   2.061 -0.1043 -0.0888 -0.4722
  511SOL    HW3 1817   3.600   2.188   2.014  0.7584  0.4302 -2.8469
  511SOL    MW4 1818   3.660   2.244   2.044  0.1630 -0.1037 -0.2234
  512SOL     OW 1819   4.251   1.057   0.413 -0.4780  0.4295 -0.4209
  512SOL    HW2 1820   4.238   0.985   0.351 -0.3415 -0.4789  0.5773
  512SOL    HW3 1821   4.177   1.116   0.397 -0.0074  0.6301 -1.9822
  512SOL    MW4 1822   4.239   1.055   0.403 -0.5641  0.0707  0.4580
  513SOL     OW 1823   3.421   4.582   4.632  0.2409 -0.4475  0.2169
  513SOL    HW2 1824   3.332   4.609   4.655  0.3710 -0.6538  1.0144
  513SOL    HW3 1825   3.422   4.580   4.537 -0.0192  1.5749  0.1172
  513SOL    MW4 1826   3.410   4.585   4.623 -0.3550 -0.5183  0.3157
  514SOL     OW 1827   4.989   5.478   1.178  0.5260  0.1449 -0.4927
  514SOL    HW2 1828   4.994   5.534   1.255 -1.3895  2.3794 -1.8529
  514SOL    HW3 1829   5.074   5.490   1.135  1.2726 -0.4331  0.7551
  514SOL    MW4 1830   5.001   5.487   1.182 -0.2130 -0.1816  0.3762
  515SOL     OW 1831   0.984   6.334   1.959 -0.5696 -0.7412 -0.5239
  515SOL    HW2 1832   1.045   6.354   1.889  0.7221  0.3099  0.8311
  515SOL    HW3 1833   0.979   6.238   1.959 -0.4107 -0.7662 -1.8756
  515SOL    MW4 1834   0.992   6.324   1.950 -0.0699 -0.1070  0.0267
  516SOL     OW 1835   4.449   2.847   5.183  0.7419  0.2915 -0.2424
  516SOL    HW2 1836   4.403   2.931   5.176 -1.4973 -0.8376  0.0927
  516SOL    HW3 1837   4.541   2.872   5.194  0.3105  2.6674 -1.2729
  516SOL    MW4 1838   4.455   2.862   5.184 -0.3073 -0.0458 -0.6188
  517SOL     OW 1839   0.167   1.798   5.747  0.1134  0.1786 -0.2065
  517SOL    HW2 1840   0.248   1.775   5.793 -0.7199 -3.2854 -0.1422
  517SOL    HW3 1841   0.104   1.817   5.817  0.1725  0.0371 -0.1130
  517SOL    MW4 1842   0.169   1.797   5.762 -0.2130  0.2669 -0.0955
  518SOL     OW 1843   0.409   0.461   2.957  0.2726  0.1017  0.1378
  518SOL    HW2 1844   0.434   0.388   2.901 -1.1045 -0.9188  0.8165
  518SOL    HW3 1845   0.313   0.463   2.954  0.0815 -0.5990  3.1713
  518SOL    MW4 1846   0.400   0.452   2.949  0.1775 -0.3461  0.9900
  519SOL     OW 1847   2.695   3.508   1.247 -0.1268 -0.2626 -0.1738
  519SOL    HW2 1848   2.620   3.485   1.192 -0.5879 -1.2167  0.8103
  519SOL    HW3 1849   2.746   3.427   1.252 -0.1468 -0.2246  0.8595
  519SOL    MW4 1850   2.691   3.494   1.240 -0.1213 -0.8374 -0.1185
  520SOL     OW 1851   3.614   2.435   1.445  0.0448 -0.1514 -0.1517
  520SOL    HW2 1852   3.652   2.523   1.451  0.5921 -0.3466 -0.7305
  520SOL    HW3 1853   3.589   2.426   1.353 -2.0089  0.2203  0.3277
  520SOL    MW4 1854   3.616   2.446   1.433  0.1367  0.7463  0.6620
  521SOL     OW 1855   3.821   5.080   4.081 -0.4879  0.0048 -0.0742
  521SOL    HW2 1856   3.857   5.078   4.169 -0.4546 -1.0625 -0.0949
  521SOL    HW3 1857   3.746   5.139   4.087 -0.0047  0.5708  0.4717
  521SOL    MW4 1858   3.816   5.087   4.093  0.0264 -0.3495 -0.1810
  522SOL     OW 1859   0.955   3.491   6.306 -0.2807  0.0912  0.0398
  522SOL    HW2 1860   0.935   3.398   6.299  0.2174  0.0829 -2.4489
  522SOL    HW3 1861   1.045   3.499   6.275 -0.1083  1.3499  0.7798
  522SOL    MW4 1862   0.964   3.480   6.301  0.4143  0.0317  0.2675
  523SOL     OW 1863   2.119   2.919   2.465  0.3845  0.6848 -0.2958
  523SOL    HW2 1864   2.070   2.920   2.547 -0.5898 -0.4742 -0.8273
  523SOL    HW3 1865   2.162   3.004   2.461  0.7354  0.6477  1.5734
  523SOL    MW4 1866   2.118   2.930   2.476  0.1449 -0.4235 -0.1270
  524SOL     OW 1867   3.780   2.164   5.240 -0.4545  0.3313 -0.7066
  524SOL    HW2 1868   3.844   2.218   5.194 -1.6308  2.1200 -0.3354
  524SOL    HW3 1869   3.731   2.120   5.171 -0.6970  1.2126 -1.1159
  524SOL    MW4 1870   3.782   2.165   5.225 -0.8048 -0.6743  0.8491
  525SOL     OW 1871   4.839   3.330   1.564  0.1338  0.6959 -0.2069
  525SOL    HW2 1872   4.758   3.305   1.608  1.5700  0.1075  2.2913
  525SOL    HW3 1873   4.814   3.402   1.506 -2.6578 -1.2396 -1.6817
  525SOL    MW4 1874   4.825   3.336   1.562  0.1498 -0.3377  0.0985
  526SOL     OW 1875   2.551   3.794   4.977  0.4739  0.2727 -0.5543
  526SOL    HW2 1876   2.466   3.786   4.934 -0.3049  1.3597  0.6858
  526SOL    HW3 1877   2.581   3.704   4.989 -1.4288 -0.2335  0.7522
  526SOL    MW4 1878   2.544   3.781   4.973  0.3657  0.2159  0.6037
  527SOL     OW 1879   6.275   4.661   0.455 -0.4877 -0.2534 -0.1578
  527SOL    HW2 1880   6.248   4.617   0.374 -0.0949 -0.4597 -0.1836
  527SOL    HW3 1881   6.344   4.721   0.427 -2.0446  1.5201 -0.3701
  527SOL    MW4 1882   6.281   4.663   0.440 -0.3149 -0.2235  0.1745
  528SOL     OW 1883   0.929   5.511   4.307  0.0193  0.1069 -0.4610
  528SOL    HW2 1884   0.969   5.425   4.295  0.1065  0.1327 -0.3620
  528SOL    HW3 1885   0.999   5.573   4.287 -0.1163  0.1568 -0.7802
  528SOL    MW4 1886   0.944   5.508   4.303  0.1525  0.3900 -0.1340
  529SOL     OW 1887   4.015   2.042   1.817 -0.4025 -0.2942 -0.1407
  529SOL    HW2 1888   3.971   2.122   1.845 -0.5443 -0.5893  0.4818
  529SOL    HW3 1889   4.003   2.041   1.722 -1.0079  0.0609 -0.0749
  529SOL    MW4 1890   4.008   2.053   1.808  0.1570  0.1657  0.2779
  530SOL     OW 1891   3.608   0.032   1.574 -0.1890  0.1520 -0.2176
  530SOL    HW2 1892   3.622   0.126   1.583 -0.7805  0.2380 -0.1917
  530SOL    HW3 1893   3.525   0.015   1.617 -0.0001 -0.4136 -0.0677
  530SOL    MW4 1894   3.599   0.042   1.581 -0.2186 -0.1343  0.3539
  531SOL     OW 1895   4.137   3.483   0.989  0.3849 -0.1176 -0.3603
  531SOL    HW2 1896   4.108   3.564   1.032 -0.1409  0.0138 -0.9440
  531SOL    HW3 1897   4.069   3.465   0.925  0.4075 -1.1345 -0.1124
  531SOL    MW4 1898   4.124   3.491   0.986  0.2933 -0.1084  0.0408
  532SOL     OW 1899   1.694   0.388   3.247  0.2897 -0.4762 -0.1360
  532SOL    HW2 1900   1.737   0.401   3.162  0.1509  1.2541  0.0165
  532SOL    HW3 1901   1.609   0.431   3.237 -0.2157 -1.2856  0.5225
  532SOL    MW4 1902   1.688   0.395   3.234 -0.2812  0.1396  0.0598
  533SOL     OW 1903   1.801   3.492   3.988 -0.1593  0.0124 -0.5309
  533SOL    HW2 1904   1.841   3.502   4.075  0.9086 -0.5885 -0.9341
  533SOL    HW3 1905   1.749   3.412   3.995 -0.1402  0.0087 -0.4263
  533SOL    MW4 1906   1.800   3.483   4.001  0.2120  0.2555  0.0510
  534SOL     OW 1907   4.220   4.016   1.104 -0.1954  0.0147  0.0318
  534SOL    HW2 1908   4.289   4.070   1.142 -0.2622  0.3769 -0.3524
  534SOL    HW3 1909   4.265   3.952   1.050 -0.1385 -0.0470  0.1513
  534SOL    MW4 1910   4.235   4.015   1.102 -0.2797 -0.5162 -0.4232
  535SOL     OW 1911   3.521   4.828   2.374 -0.1830 -0.2945  0.4449
  535SOL    HW2 1912   3.572   4.881   2.314 -0.5822  1.1035  1.2965
  535SOL    HW3 1913   3.548   4.857   2.461 -1.6160 -0.2862  0.9209
  535SOL    MW4 1914   3.531   4.839   2.378 -0.8387  0.4088 -0.0217
  536SOL     OW 1915   6.020   1.644   6.039 -0.2563 -0.3932  0.2797
  536SOL    HW2 1916   5.935   1.675   6.071 -0.5545  2.4818 -2.7397
  536SOL    HW3 1917   6.071   1.724   6.027  1.2774 -1.6134 -2.0596
  536SOL    MW4 1918   6.015   1.659   6.042 -0.1608  0.4583 -0.4107
  537SOL     OW 1919   3.703   2.511   3.570 -0.3981  0.0659 -0.0415
  537SOL    HW2 1920   3.732   2.580   3.511  1.7035  1.4516  2.4096
  537SOL    HW3 1921   3.612   2.534   3.590 -0.4823  0.7388 -1.1169
  537SOL    MW4 1922   3.695   2.523   3.565  0.0947  0.1356  0.3736
  538SOL     OW 1923   5.386   4.932   3.127 -0.2114 -0.1742  0.2581
  538SOL    HW2 1924   5.404   4.897   3.039 -0.4480  1.4318 -0.4510
  538SOL    HW3 1925   5.464   4.907   3.178 -0.2553 -1.4969 -0.2661
  538SOL    MW4 1926   5.399   4.924   3.122 -0.2231 -0.0066  0.6843
  539SOL     OW 1927   1.988   2.128   0.005 -0.3231 -0.2728 -0.2085
  539SOL    HW2 1928   2.052   2.166  -0.055  0.8565 -0.4070  0.9272
  539SOL    HW3 1929   2.039   2.103   0.082 -1.4786 -1.9138  0.0722
  539SOL    MW4 1930   2.003   2.130   0.007 -0.0962  0.4382 -0.6476
  540SOL     OW 1931   0.771   5.651   2.046 -0.4104 -0.5195  0.6194
  540SOL    HW2 1932   0.815   5.568   2.029 -0.3152 -0.1060 -1.4432
  540SOL    HW3 1933   0.686   5.626   2.082 -0.6635 -1.5806 -0.6304
  540SOL    MW4 1934   0.766   5.637   2.049  0.4053 -0.3259 -0.0274
  541SOL     OW 1935   2.150   4.977   5.378  0.5104 -0.7286 -0.4346
  541SOL    HW2 1936   2.166   4.885   5.400  2.3953 -0.2055  0.6341
  541SOL    HW3 1937   2.237   5.011   5.355  0.1116  1.1341  0.5929
  541SOL    MW4 1938   2.164   4.969   5.378 -0.2035 -0.0233 -0.5545
  542SOL     OW 1939   2.349   4.992   1.854  0.5523  0.0211  0.1407
  542SOL    HW2 1940   2.254   4.983   1.847  0.3625  2.0851 -0.6283
  542SOL    HW3 1941   2.380   4.903   1.871 -1.4432 -0.8186 -0.2868
  542SOL    MW4 1942   2.340   4.979   1.855  0.5005 -0.7168 -0.0749
  543SOL     OW 1943   1.442   2.544   0.223 -0.2481  0.1043  0.0813
  543SOL    HW2 1944   1.434   2.535   0.317 -1.3304 -0.2590 -0.0317
  543SOL    HW3 1945   1.388   2.621   0.202  0.7254  0.7472 -0.1461
  543SOL    MW4 1946   1.434   2.553   0.232  0.3314 -0.1682 -0.3932
  544SOL     OW 1947   4.884   0.283   2.441 -0.3967  0.1274  0.0264
  544SOL    HW2 1948   4.849   0.254   2.357 -1.1980 -0.3640  0.5078
  544SOL    HW3 1949   4.969   0.321   2.421 -0.6479  0.1577 -1.0208
  544SOL    MW4 1950   4.890   0.284   2.427  0.2366  0.5078 -0.3720
  545SOL     OW 1951   2.655   1.986   0.449  0.5199  0.1339 -0.0382
  545SOL    HW2 1952   2.571   2.029   0.431  0.6099 -0.1656 -1.3045
  545SOL    HW3 1953   2.717   2.030   0.391  0.8818 -0.8102 -0.3888
  545SOL    MW4 1954   2.652   1.997   0.439 -1.0063 -0.1654  0.5349
  546SOL     OW 1955   5.101   4.138   2.669  0.0836  0.4916 -0.1350
  546SOL    HW2 1956   5.101   4.110   2.578 -1.3483  2.8068 -0.9248
  546SOL    HW3 1957   5.190   4.119   2.700  0.8599  0.4424 -2.2499
  546SOL    MW4 1958   5.112   4.132   2.661 -0.4922 -0.0761 -0.0375
  547SOL     OW 1959   0.364   5.293   5.513  0.1930 -0.4989 -0.0378
  547SOL    HW2 1960   0.407   5.328   5.592  0.3553  0.5645 -0.5731
  547SOL    HW3 1961   0.272   5.286   5.537  0.0931  0.6547 -0.0053
  547SOL    MW4 1962   0.358   5.297   5.527 -0.0361 -0.2820  0.5255
  548SOL     OW 1963   0.659   5.679   0.350  0.0997 -0.2313  0.1620
  548SOL    HW2 1964   0.614   5.594   0.341  0.0369 -0.0425 -1.7102
  548SOL    HW3 1965   0.622   5.717   0.429 -2.2198 -0.5942 -0.6640
  548SOL    MW4 1966   0.648   5.673   0.359  0.4644 -0.0151 -0.0110
  549SOL     OW 1967   0.829   0.386   3.659  0.0437  0.3358 -0.1630
  549SOL    HW2 1968   0.799   0.452   3.596 -0.0585  0.8377  0.4079
  549SOL    HW3 1969   0.782   0.406   3.739  1.8989  1.1771  0.7819
  549SOL    MW4 1970   0.819   0.397   3.661  0.1572 -0.6729 -0.6137
  550SOL     OW 1971   1.880   6.304   4.290 -0.0793  0.4994  0.0459
  550SOL    HW2 1972   1.916   6.389   4.319  0.5479  0.3786 -0.3447
  550SOL    HW3 1973   1.922   6.289   4.205 -2.6613  1.3570 -1.4922
  550SOL    MW4 1974   1.890   6.314   4.283 -0.2824  0.1644 -0.2372
  551SOL     OW 1975   2.466   5.132   4.624 -0.0393 -0.3154  0.1919
  551SOL    HW2 1976   2.510   5.156   4.706 -1.7808 -0.7748  1.3059
  551SOL    HW3 1977   2.409   5.059   4.648  0.5135 -1.4865 -1.7824
  551SOL    MW4 1978   2.465   5.125   4.638 -0.2552 -0.3016 -0.4676
  552SOL     OW 1979   0.146   4.617   2.194 -0.0412  0.7463  0.7313
  552SOL    HW2 1980   0.189   4.609   2.279  1.8545  0.6427 -0.1673
  552SOL    HW3 1981   0.120   4.709   2.189  2.1691  1.4285  0.4489
  552SOL    MW4 1982   0.148   4.628   2.205  0.0352  0.4280  0.2109
  553SOL     OW 1983   6.272   4.542   0.709 -0.4333 -0.3971  0.3288
  553SOL    HW2 1984   6.352   4.556   0.761  0.7436 -2.0956 -0.9127
  553SOL    HW3 1985   6.290   4.584   0.625 -1.8030  1.1889  0.7780
  553SOL    MW4 1986   6.285   4.549   0.705  0.3793  0.4104 -0.3356
  554SOL     OW 1987   2.667   3.529   3.472  0.0642  0.3174 -0.3720
  554SOL    HW2 1988   2.754   3.570   3.481 -0.5798  1.5732  0.3814
  554SOL    HW3 1989   2.637   3.516   3.562 -0.5207 -0.1478 -0.6294
  554SOL    MW4 1990   2.675   3.533   3.485  0.2915  0.1821  0.3345
  555SOL     OW 1991   4.115   4.303   2.639  0.0331 -0.2711  0.0220
  555SOL    HW2 1992   4.173   4.349   2.700  0.8876  0.2768 -1.1639
  555SOL    HW3 1993   4.170   4.283   2.564 -1.1268 -0.4167 -0.8207
  555SOL    MW4 1994   4.130   4.307   2.638 -0.2193 -0.1010  0.1201
  556SOL     OW 1995   3.450   3.103   6.314  0.1395  0.7482  0.2556
  556SOL    HW2 1996   3.407   3.047   6.249  1.0882  1.6887 -1.2579
  556SOL    HW3 1997   3.443   3.054   6.396  0.0260 -1.1102 -0.7970
  556SOL    MW4 1998   3.444   3.089   6.316  0.5889  0.2573 -0.4047
  557SOL     OW 1999   2.454   4.944   3.227  0.2381 -0.3048  0.2236
  557SOL    HW2 2000   2.496   5.000   3.162  1.2807 -0.6082  0.6188
  557SOL    HW3 2001   2.361   4.946   3.204  0.0498  2.4291  0.8216
  557SOL    MW4 2002   2.447   4.952   3.216 -0.1016 -0.6420  0.0404
  558SOL     OW 2003   0.988   2.513   0.161 -0.1288  0.0114  0.7684
  558SOL    HW2 2004   0.894   2.526   0.169 -0.4983 -1.3545 -0.7937
  558SOL    HW3 2005   1.018   2.494   0.250 -1.4724 -0.4138  1.1400
  558SOL    MW4 2006   0.980   2.512   0.174 -0.3988 -0.0184  0.1502
  559SOL     OW 2007   2.588   5.132   2.698  0.0577  0.7112 -0.1233
  559SOL    HW2 2008   2.665   5.093   2.658 -0.2764  0.1019 -0.1815
  559SOL    HW3 2009   2.599   5.119   2.792 -1.2343 -1.8270 -0.2461
  559SOL    MW4 2010   2.600   5.125   2.705  0.0528  0.0192  0.7338
  560SOL     OW 2011   1.277   6.247   5.564  0.0876  0.6110 -0.2617
  560SOL    HW2 2012   1.288   6.193   5.642  3.1313  1.3912 -0.0303
  560SOL    HW3 2013   1.297   6.188   5.491  0.2492  0.6310 -0.2336
  560SOL    MW4 2014   1.281   6.232   5.565  0.2161  0.1241 -0.0630
  561SOL     OW 2015   2.015   4.641   1.959 -0.4538  0.1921  0.2533
  561SOL    HW2 2016   1.931   4.688   1.954 -1.7769 -2.1277 -2.6380
  561SOL    HW3 2017   1.993   4.558   2.003  0.2286 -0.5188 -0.7105
  561SOL    MW4 2018   2.001   4.636   1.964 -0.0689 -0.2560 -0.5556
  562SOL     OW 2019   0.072   3.772   0.139  0.8553  0.1355  0.0383
  562SOL    HW2 2020   0.108   3.859   0.157  1.6294 -0.4476  1.4979
  562SOL    HW3 2021   0.081   3.760   0.045 -0.0514  1.9706 -0.3142
  562SOL    MW4 2022   0.078   3.782   0.129 -0.0061  0.4769 -0.3314
  563SOL     OW 2023   5.646   2.839   0.064  0.1425  0.2608  0.3828
  563SOL    HW2 2024   5.718   2.901   0.073  0.9003 -0.4425 -0.6198
  563SOL    HW3 2025   5.629   2.836  -0.030 -0.2920 -0.5927  0.4843
  563SOL    MW4 2026   5.653   2.847   0.053 -0.7911 -0.3466  0.4815
  564SOL     OW 2027   0.737   0.195   3.128  0.1953  0.0861  0.1566
  564SOL    HW2 2028   0.789   0.270   3.100  0.4196 -0.1076  0.0434
  564SOL    HW3 2029   0.659   0.198   3.072  0.3420  0.0678 -0.0528
  564SOL    MW4 2030   0.733   0.205   3.117 -0.1738  0.0350 -0.5350
  565SOL     OW 2031   5.130   3.587   5.536 -0.4605 -0.0646 -0.6177
  565SOL    HW2 2032   5.109   3.649   5.605  1.3495 -0.8004  0.6547
  565SOL    HW3 2033   5.168   3.640   5.467 -2.5995  0.7238 -1.2896
  565SOL    MW4 2034   5.132   3.602   5.536 -0.5606 -0.2432  0.2344
  566SOL     OW 2035   4.223   2.070   5.446 -0.6045 -0.2024 -0.3345
  566SOL    HW2 2036   4.176   2.139   5.493  0.7813 -0.3571  1.3472
  566SOL    HW3 2037   4.162   1.996   5.445 -0.8983  0.0211  0.6563
  566SOL    MW4 2038   4.209   2.069   5.452  0.0954 -0.1744  0.0168
  567SOL     OW 2039   3.557   6.283   5.075 -0.0648  0.1928 -0.4993
  567SOL    HW2 2040   3.515   6.279   4.989 -1.9903 -0.7717  0.4120
  567SOL    HW3 2041   3.486   6.307   5.135  1.7083  3.2918  0.5818
  567SOL    MW4 2042   3.542   6.285   5.072  0.1603 -0.0139 -0.2791
  568SOL     OW 2043   4.763   3.280   4.812 -0.1597  0.4431  0.5564
  568SOL    HW2 2044   4.759   3.349   4.746 -2.1034  0.5065  0.6633
  568SOL    HW3 2045   4.840   3.301   4.865 -0.0237  1.8387 -0.1513
  568SOL    MW4 2046   4.772   3.292   4.810 -0.6218 -0.2509  0.3935
  569SOL     OW 2047   4.259   4.511   0.350  0.3355 -0.0618  0.2862
  569SOL    HW2 2048   4.269   4.589   0.405  0.9900 -1.2705  1.9882
  569SOL    HW3 2049   4.344   4.498   0.309  0.3799 -0.1545  0.4060
  569SOL    MW4 2050   4.271   4.519   0.352 -0.3114  0.4576  0.6407
  570SOL     OW 2051   5.089   3.276   4.996  0.0227  0.5141 -0.4587
  570SOL    HW2 2052   5.109   3.229   4.915 -0.4116 -0.6334  0.0759
  570SOL    HW3 2053   5.133   3.225   5.064 -0.9429  0.5383  0.1990
  570SOL    MW4 2054   5.097   3.263   4.994  0.5030 -0.2280  0.1713
  571SOL     OW 2055   4.896   5.623   5.305  0.0645  0.0398 -0.1748
  571SOL    HW2 2056   4.958   5.564   5.348  1.0004  0.8351 -0.3839
  571SOL    HW3 2057   4.838   5.653   5.375  0.6730  0.2072  0.2681
  571SOL    MW4 2058   4.897   5.619   5.319  0.5100 -0.3803 -0.6579
  572SOL     OW 2059   4.480   5.938   5.223 -0.0867 -0.1327 -0.4089
  572SOL    HW2 2060   4.558   5.980   5.187  1.3157 -1.8287  0.5027
  572SOL    HW3 2061   4.448   6.000   5.289 -0.4470  1.2559 -1.8325
  572SOL    MW4 2062   4.486   5.952   5.227  0.1883 -0.0055  0.2438
  573SOL     OW 2063   5.446   4.537   4.485 -0.1361  0.2490  0.0521
  573SOL    HW2 2064   5.498   4.573   4.557  0.7783 -0.5035 -0.2201
  573SOL    HW3 2065   5.494   4.460   4.457 -0.8809  0.1087 -0.8807
  573SOL    MW4 2066   5.459   4.532   4.491 -0.1928 -0.2237  0.3922
  574SOL     OW 2067   2.860   5.416   1.524  0.1729  0.4384  0.0534
  574SOL    HW2 2068   2.815   5.499   1.509  0.7700  0.7576  0.0342
  574SOL    HW3 2069   2.860   5.373   1.439 -1.9043 -0.4897  0.4462
  574SOL    MW4 2070   2.854   5.421   1.511  0.3350  0.0754  0.1868
  575SOL     OW 2071   5.040   3.249   4.145 -0.2240 -0.0772 -0.7729
  575SOL    HW2 2072   4.992   3.258   4.063 -3.5482  2.2027  1.1865
  575SOL    HW3 2073   5.086   3.333   4.155 -2.7907  1.2221  1.2233
  575SOL    MW4 2074   5.040   3.261   4.135  0.1450  0.2527  0.1759
  576SOL     OW 2075   5.986   6.000   3.508 -0.8355  0.1040  0.4688
  576SOL    HW2 2076   6.017   5.913   3.485  1.6275  0.7936  0.8321
  576SOL    HW3 2077   6.005   6.008   3.602 -1.2102  0.9639  0.4815
  576SOL    MW4 2078   5.993   5.990   3.517 -0.3170  0.3622 -0.3238
  577SOL     OW 2079   4.189   1.724   1.352 -0.0176  0.1404  0.4898
  577SOL    HW2 2080   4.189   1.635   1.388  2.0943  0.2681  0.9482
  577SOL    HW3 2081   4.211   1.712   1.260  1.4296  0.1986  0.7915
  577SOL    MW4 2082   4.192   1.710   1.345  0.4489  0.1140  0.5026
  578SOL     OW 2083   4.613   3.249   1.690  0.0698  0.1437 -0.6770
  578SOL    HW2 2084   4.576   3.163   1.670 -1.6554  0.9858 -1.2996
  578SOL    HW3 2085   4.652   3.239   1.777 -2.4065 -0.6057  0.4288
  578SOL    MW4 2086   4.614   3.237   1.699 -0.2786 -0.2200  0.4354
  579SOL     OW 2087   4.289   0.542   2.769  0.5128 -0.1351  0.3072
  579SOL    HW2 2088   4.375   0.570   2.737  0.2629 -1.6402 -1.8831
  579SOL    HW3 2089   4.304   0.455   2.805  0.2834  0.5164  2.1040
  579SOL    MW4 2090   4.302   0.534   2.770  0.1102 -0.7870 -0.7426
  580SOL     OW 2091   1.314   0.651   5.941 -0.2921 -0.2769  0.6203
  580SOL    HW2 2092   1.233   0.621   5.981 -0.8550  2.6536  1.9688
  580SOL    HW3 2093   1.287   0.717   5.877  0.9782  0.5656  0.9020
  580SOL    MW4 2094   1.300   0.656   5.937  0.2739  0.1583 -0.2741
  581SOL     OW 2095   3.493   2.401   2.463  0.1190 -0.3005 -0.1368
  581SOL    HW2 2096   3.515   2.357   2.381 -0.6966 -2.0391  0.5274
  581SOL    HW3 2097   3.540   2.351   2.530 -0.5958  0.0205  0.6234
  581SOL    MW4 2098   3.502   2.389   2.461 -0.2820  0.2603 -0.0609
  582SOL     OW 2099   4.039   1.417   5.641  0.0948  0.1252  0.2283
  582SOL    HW2 2100   4.123   1.455   5.613 -0.1886  1.2350  0.8205
  582SOL    HW3 2101   4.055   1.323   5.643  1.6227  0.3691  1.2468
  582SOL    MW4 2102   4.052   1.410   5.637  0.0717 -0.2984 -0.3254
  583SOL     OW 2103   0.965   2.366   0.635 -1.1449  0.2013 -0.3035
  583SOL    HW2 2104   0.883   2.329   0.669  0.0361 -1.9582  0.3700
  583SOL    HW3 2105   0.968   2.455   0.672 -3.8285  0.9224 -1.5205
  583SOL    MW4 2106   0.954   2.373   0.645  0.4783  0.1664 -0.2451
  584SOL     OW 2107   1.872   2.415   6.172  0.1836  0.1880 -0.4523
  584SOL    HW2 2108   1.872   2.375   6.259 -1.4737  2.4869  0.7440
  584SOL    HW3 2109   1.964   2.425   6.150  0.6355 -1.4885  0.4985
  584SOL    MW4 2110   1.884   2.411   6.181  0.0905  0.2653 -0.3302
  585SOL     OW 2111   3.798   0.325   1.201 -0.2464  0.2465 -0.3428
  585SOL    HW2 2112   3.783   0.272   1.122  0.4689 -1.8601  0.8404
  585SOL    HW3 2113   3.893   0.331   1.208 -0.3010  0.1278  0.5305
  585SOL    MW4 2114   3.809   0.318   1.191 -0.1911  0.1910  0.2715
  586SOL     OW 2115   6.169   2.400   5.977 -0.3133 -0.2093  0.2767
  586SOL    HW2 2116   6.233   2.358   5.919 -0.5302 -1.1133  0.6731
  586SOL    HW3 2117   6.221   2.439   6.047 -0.0031  1.3708 -0.7854
  586SOL    MW4 2118   6.184   2.399   5.979 -0.0815 -0.3789  0.1564
  587SOL     OW 2119   2.019   2.972   2.734  0.0208  0.5172  0.0262
  587SOL    HW2 2120   2.031   2.958   2.828  1.2352  1.5223  0.0456
  587SOL    HW3 2121   1.924   2.978   2.722 -0.1818 -0.3269  1.0629
  587SOL    MW4 2122   2.008   2.971   2.745 -0.1028  0.2179  0.3114
  588SOL     OW 2123   2.283   0.462   4.394  0.4296 -0.3628 -0.0094
  588SOL    HW2 2124   2.285   0.543   4.344  2.8443  0.1717  0.7820
  588SOL    HW3 2125   2.331   0.399   4.340  3.1882  0.2580  1.4886
  588SOL    MW4 2126   2.290   0.464   4.380  0.1834 -1.1386 -0.2387
  589SOL     OW 2127   0.901   5.616   4.652  0.2603  0.3488  0.3758
  589SOL    HW2 2128   0.978   5.562   4.635 -1.0436 -1.3121 -0.6222
  589SOL    HW3 2129   0.878   5.652   4.566  1.1617  2.6617  1.0359
  589SOL    MW4 2130   0.908   5.614   4.638  0.5005  0.7291 -0.2638
  590SOL     OW 2131   2.975   2.203   4.390 -0.1578  0.0123  0.4446
  590SOL    HW2 2132   3.019   2.284   4.416  0.8145 -0.8395  1.5537
  590SOL    HW3 2133   3.046   2.142   4.370 -0.8785 -0.5422 -0.5518
  590SOL    MW4 2134   2.990   2.205   4.390 -0.3727  0.5749  0.4297
  591SOL     OW 2135   4.917   4.224   5.979 -0.0353  0.3599  0.4088
  591SOL    HW2 2136   4.872   4.161   5.922  1.2568 -0.1501 -0.0857
  591SOL    HW3 2137   4.945   4.294   5.919 -0.4178  0.8201  0.7612
  591SOL    MW4 2138   4.915   4.225   5.963  0.2821  0.0328  0.9730
  592SOL     OW 2139   4.354   0.517   5.570  0.0815  0.3325 -0.2548
  592SOL    HW2 2140   4.443   0.482   5.568  0.2972  0.8514  0.1754
  592SOL    HW3 2141   4.341   0.556   5.483  0.3074  0.3508 -0.2803
  592SOL    MW4 2142   4.364   0.517   5.558  0.1537  0.3500  1.0020
  593SOL     OW 2143   3.233   4.466   0.323  0.3192  0.6778  0.3906
  593SOL    HW2 2144   3.255   4.544   0.373 -1.2574  2.1287 -1.0204
  593SOL    HW3 2145   3.138   4.471   0.311  0.3106 -0.9566 -0.5363
  593SOL    MW4 2146   3.224   4.477   0.328  0.1851  0.1027  0.0965
  594SOL     OW 2147   5.734   0.715   3.525  0.6750 -0.0402  0.2741
  594SOL    HW2 2148   5.776   0.650   3.468  2.9236  1.0574  0.5485
  594SOL    HW3 2149   5.667   0.756   3.471  1.0732 -0.7405 -0.7658
  594SOL    MW4 2150   5.731   0.712   3.511  0.5795  0.1587  0.0621
  595SOL     OW 2151   5.458   5.474   5.708 -0.2825 -0.3930 -0.1443
  595SOL    HW2 2152   5.516   5.399   5.723  0.4674  0.1797 -0.0956
  595SOL    HW3 2153   5.500   5.521   5.636 -1.2147 -0.4780 -0.7600
  595SOL    MW4 2154   5.471   5.470   5.700  0.0478 -0.1595  0.6561
  596SOL     OW 2155   6.337   2.716   0.795 -0.0509  0.5316  0.0893
  596SOL    HW2 2156   6.390   2.757   0.726 -1.2228 -2.9328 -3.1933
  596SOL    HW3 2157   6.247   2.730   0.766 -0.5404 -1.6751  0.4094
  596SOL    MW4 2158   6.332   2.723   0.782 -0.0788 -0.0608 -0.5216
  597SOL     OW 2159   0.566   5.349   2.735 -0.1499  0.4899 -0.2897
  597SOL    HW2 2160   0.508   5.294   2.789  0.5261  2.0005  2.1479
  597SOL    HW3 2161   0.565   5.308   2.649 -1.0801 -2.2722  0.9230
  597SOL    MW4 2162   0.558   5.337   2.731  0.1360 -0.5581  0.1728
  598SOL     OW 2163   5.227   1.308   6.071 -0.4654 -0.5384 -0.2788
  598SOL    HW2 2164   5.134   1.290   6.077 -0.1237 -2.1766  0.5487
  598SOL    HW3 2165   5.234   1.375   6.003 -2.4523  1.4315  1.2943
  598SOL    MW4 2166   5.216   1.315   6.063 -0.1939  0.2664 -0.8682
  599SOL     OW 2167   1.203   4.037   1.156 -0.1012  0.8320  0.1401
  599SOL    HW2 2168   1.274   4.050   1.093 -0.0455  3.7218  0.6855
  599SOL    HW3 2169   1.236   3.970   1.216  0.5729 -0.6533 -1.7684
  599SOL    MW4 2170   1.217   4.030   1.155  0.4575 -0.2748  0.3436
  600SOL     OW 2171   3.111   4.494   6.286  0.0758  0.5922 -0.5594
  600SOL    HW2 2172   3.108   4.403   6.259 -0.8020  0.5775 -0.4328
  600SOL    HW3 2173   3.191   4.501   6.338 -1.8826 -1.1219  3.0334
  600SOL    MW4 2174   3.121   4.483   6.289 -0.7479 -0.2089  0.0908
  601SOL     OW 2175   5.207   3.123   0.026 -0.1626  0.4058 -0.1320
  601SOL    HW2 2176   5.133   3.073   0.059  0.3377 -1.0984 -1.2016
  601SOL    HW3 2177   5.254   3.151   0.105 -0.5226 -0.7125  0.4895
  601SOL    MW4 2178   5.204   3.120   0.041 -0.0450 -0.0951  0.0361
  602SOL     OW 2179   6.056   2.760   2.672  0.1008  0.5359  0.0677
  602SOL    HW2 2180   6.113   2.683   2.672  0.0115  0.4342  1.4047
  602SOL    HW3 2181   5.982   2.736   2.617  0.5540  0.0449 -0.3399
  602SOL    MW4 2182   6.054   2.747   2.665 -0.3535  0.3637  0.1842
  603SOL     OW 2183   3.894   0.659   2.781 -0.9063 -0.1613 -0.2911
  603SOL    HW2 2184   3.841   0.657   2.861 -1.0544  2.3147 -0.2369
  603SOL    HW3 2185   3.873   0.743   2.741  0.8084 -0.3931 -1.8130
  603SOL    MW4 2186   3.884   0.670   2.786  0.0101 -0.0928 -0.7685
  604SOL     OW 2187   3.800   4.466   3.660  0.2543  0.2392  0.0850
  604SOL    HW2 2188   3.817   4.551   3.702  0.3424  0.6919 -0.8541
  604SOL    HW3 2189   3.786   4.487   3.568  2.2376 -0.9656 -0.5510
  604SOL    MW4 2190   3.800   4.480   3.654  0.1920  0.2948  0.3215
  605SOL     OW 2191   1.098   0.437   3.748  0.1965  0.2645  0.0583
  605SOL    HW2 2192   1.008   0.411   3.727  0.5147 -0.1929 -0.7662
  605SOL    HW3 2193   1.151   0.395   3.681  1.2644 -1.1483  1.7041
  605SOL    MW4 2194   1.093   0.428   3.737 -0.3734 -0.7067  0.3652
  606SOL     OW 2195   4.831   0.255   1.535 -0.1326 -0.4940  0.3926
  606SOL    HW2 2196   4.782   0.302   1.467 -1.7324  0.0407  1.8319
  606SOL    HW3 2197   4.918   0.294   1.534 -0.8244  1.1292  0.2045
  606SOL    MW4 2198   4.836   0.266   1.526  0.5254 -0.1355  0.4472
  607SOL     OW 2199   4.462   5.046   4.865  0.0862 -0.2931  0.3771
  607SOL    HW2 2200   4.516   5.113   4.906  0.9836 -0.4049 -0.6069
  607SOL    HW3 2201   4.373   5.081   4.870  0.4098  0.4850  0.8219
  607SOL    MW4 2202   4.457   5.059   4.871 -0.3641 -0.2268  0.0759
  608SOL     OW 2203   5.201   5.896   3.702 -0.1863  0.4109 -0.1988
  608SOL    HW2 2204   5.196   5.992   3.696 -1.4657  0.3490 -0.5802
  608SOL    HW3 2205   5.138   5.866   3.636 -0.7395 -0.6674  0.7885
  608SOL    MW4 2206   5.192   5.905   3.692 -0.7604  0.7099  0.0646
  609SOL     OW 2207   3.319   1.034   1.633 -0.6211 -0.4135  0.0968
  609SOL    HW2 2208   3.351   1.062   1.547  1.6210 -2.9319 -0.0057
  609SOL    HW3 2209   3.337   1.108   1.691  2.0262 -0.2948 -0.7619
  609SOL    MW4 2210   3.325   1.048   1.629 -0.4767 -0.5413  0.4337
  610SOL     OW 2211   0.542   0.928   3.030  0.1514  0.3525 -0.1272
  610SOL    HW2 2212   0.558   0.840   3.062  0.2467  0.0037 -1.0833
  610SOL    HW3 2213   0.541   0.983   3.108 -0.4710 -0.5685  0.5291
  610SOL    MW4 2214   0.544   0.924   3.044  0.1413  0.2464  0.2442
  611SOL     OW 2215   4.523   5.952   6.063 -0.7767  0.2220  0.9462
  611SOL    HW2 2216   4.454   5.901   6.105 -3.1640  1.9714 -0.5632
  611SOL    HW3 2217   4.557   6.008   6.132 -1.2720 -0.2893  1.6181
  611SOL    MW4 2218   4.518   5.952   6.078  0.7952 -0.2421  0.5624
  612SOL     OW 2219   2.193   4.263   6.026  0.3077  0.0020 -0.2549
  612SOL    HW2 2220   2.206   4.216   6.108  0.7100  1.4593  0.5380
  612SOL    HW3 2221   2.259   4.227   5.967  0.1780 -0.8818  0.1262
  612SOL    MW4 2222   2.203   4.252   6.029  0.3194 -0.2430  0.7549
  613SOL     OW 2223   2.914   0.823   4.206 -0.3869  0.0216  0.3602
  613SOL    HW2 2224   3.002   0.848   4.176 -1.0090  1.6031 -0.1958
  613SOL    HW3 2225   2.906   0.731   4.180  0.1874  0.5319 -1.8358
  613SOL    MW4 2226   2.925   0.814   4.198 -0.4213 -0.6477  0.0718
  614SOL     OW 2227   5.926   2.468   5.549  0.1144  0.0987  0.3361
  614SOL    HW2 2228   5.919   2.550   5.501 -0.1826  0.6871  1.3523
  614SOL    HW3 2229   5.860   2.411   5.509  0.3830  0.3175 -0.4306
  614SOL    MW4 2230   5.916   2.471   5.537  0.3001 -0.4010  0.2818
  615SOL     OW 2231   0.612   3.270   5.044 -0.0480 -0.1039 -0.2481
  615SOL    HW2 2232   0.544   3.233   4.988  0.2648 -1.6923  0.3781
  615SOL    HW3 2233   0.691   3.221   5.020  0.1131 -0.7505  1.4849
  615SOL    MW4 2234   0.614   3.259   5.033  0.1458  0.1638 -0.1072
  616SOL     OW 2235   5.091   0.270   1.772 -0.1347 -0.3059  0.2256
  616SOL    HW2 2236   5.129   0.356   1.755 -0.5762 -0.2447 -0.4978
  616SOL    HW3 2237   5.125   0.215   1.703  0.7778 -0.9190  1.1461
  616SOL    MW4 2238   5.100   0.274   1.761  0.3620  0.3400  0.4637
  617SOL     OW 2239   1.097   3.666   1.901  0.1149  0.4680 -0.6199
  617SOL    HW2 2240   1.148   3.586   1.916 -0.0346  0.7459  1.7412
  617SOL    HW3 2241   1.006   3.637   1.903  0.0796  0.5649 -0.7879
  617SOL    MW4 2242   1.092   3.652   1.903  0.2265 -0.4619  0.3467
  618SOL     OW 2243   1.424   4.891   0.766 -0.7082 -0.1748  0.2423
  618SOL    HW2 2244   1.456   4.811   0.725 -1.7486  0.3923 -1.8184
  618SOL    HW3 2245   1.443   4.960   0.702 -4.2523  0.4470 -0.3494
  618SOL    MW4 2246   1.430   4.890   0.752  0.1173 -0.0233  0.2341
  619SOL     OW 2247   3.805   4.767   2.707  0.0471 -0.8007  0.4907
  619SOL    HW2 2248   3.840   4.765   2.796  2.4118 -0.2103 -0.3427
  619SOL    HW3 2249   3.768   4.680   2.694 -0.1852 -0.9524  1.9719
  619SOL    MW4 2250   3.805   4.755   2.717 -0.0400 -0.2081  0.1064
  620SOL     OW 2251   2.150   3.601   5.039 -0.2006 -0.2427  0.3498
  620SOL    HW2 2252   2.127   3.567   4.953  1.5571  0.4949 -0.4744
  620SOL    HW3 2253   2.067   3.632   5.076 -0.6396  2.5902 -2.5475
  620SOL    MW4 2254   2.136   3.601   5.033 -0.5123  0.1090  0.6383
  621SOL     OW 2255   1.633   0.638   4.155 -0.1497 -0.5190 -0.0902
  621SOL    HW2 2256   1.538   0.627   4.159 -0.2220  0.0779 -0.1381
  621SOL    HW3 2257   1.667   0.575   4.219 -0.5974 -0.4537  0.2155
  621SOL    MW4 2258   1.625   0.628   4.164 -0.4491 -0.1131  0.0450
  622SOL     OW 2259   4.659   2.910   6.174  0.2967  0.4269 -0.2549
  622SOL    HW2 2260   4.747   2.943   6.187  0.4300  0.3038 -0.8189
  622SOL    HW3 2261   4.663   2.819   6.205  0.5973  0.1529 -1.0681
  622SOL    MW4 2262   4.671   2.902   6.180  0.3631  0.7068  0.2227
  623SOL     OW 2263   5.880   4.017   0.719 -0.3510 -0.2129  0.3610
  623SOL    HW2 2264   5.855   4.081   0.652 -1.7333 -0.7747  0.3069
  623SOL    HW3 2265   5.910   3.941   0.669  2.4940  0.7674  0.4191
  623SOL    MW4 2266   5.881   4.015   0.703  0.2471  0.0401 -0.2424
  624SOL     OW 2267   5.035   5.437   1.657  0.4235  0.5219  0.1497
  624SOL    HW2 2268   4.994   5.351   1.647  3.2203 -0.6323 -4.2629
  624SOL    HW3 2269   5.094   5.427   1.732  0.6807 -1.4957 -0.2659
  624SOL    MW4 2270   5.038   5.424   1.665  0.5898 -0.1787 -0.8524
  625SOL     OW 2271   5.780   5.697   4.497 -0.1958  0.1235 -0.2678
  625SOL    HW2 2272   5.860   5.676   4.545  0.7403  0.2640 -1.7281
  625SOL    HW3 2273   5.805   5.696   4.405 -2.0339 -0.4914 -0.8111
  625SOL    MW4 2274   5.794   5.694   4.492  0.1349 -0.4900  0.8968
  626SOL     OW 2275   2.775   1.546   2.972  0.7693  0.9426 -0.2147
  626SOL    HW2 2276   2.810   1.501   3.049  2.3741  2.7092  0.1858
  626SOL    HW3 2277   2.764   1.478   2.906 -0.5818 -0.6092  1.5106
  626SOL    MW4 2278   2.778   1.531   2.974 -0.4416  0.8526 -0.3217
  627SOL     OW 2279   2.059   1.516   0.349 -0.0848 -0.3001 -0.2313
  627SOL    HW2 2280   2.082   1.434   0.305  0.1489 -0.3878  0.0481
  627SOL    HW3 2281   2.006   1.564   0.285 -0.1986 -0.6564 -0.4058
  627SOL    MW4 2282   2.055   1.512   0.335  0.1609  0.4432 -0.8095
  628SOL     OW 2283   4.684   3.847   1.159 -0.6185  0.0517  0.3156
  628SOL    HW2 2284   4.722   3.896   1.086 -0.3654  0.6768  0.8548
  628SOL    HW3 2285   4.729   3.763   1.157  0.0879  0.4230  0.3457
  628SOL    MW4 2286   4.695   3.842   1.149  0.2610  0.2471 -0.2730
  629SOL     OW 2287   0.486   4.001   5.777  0.6075  0.6349 -0.9595
  629SOL    HW2 2288   0.390   3.998   5.777  0.6195  0.0040 -0.1928
  629SOL    HW3 2289   0.509   4.028   5.865  1.1643 -1.1643 -0.5166
  629SOL    MW4 2290   0.476   4.004   5.789  0.2332 -0.4499 -0.1315
  630SOL     OW 2291   1.933   1.549   0.633  0.1268  0.1043 -0.3223
  630SOL    HW2 2292   1.980   1.549   0.550  1.5894 -0.1281  0.4795
  630SOL    HW3 2293   1.999   1.571   0.699 -0.6803 -1.0447  0.9339
  630SOL    MW4 2294   1.948   1.552   0.631 -0.4384  0.0659  0.2525
  631SOL     OW 2295   2.981   4.320   0.838  0.8917  0.2175 -0.1007
  631SOL    HW2 2296   2.921   4.305   0.911  1.2302 -0.4483  0.0434
  631SOL    HW3 2297   3.029   4.238   0.829  1.1809  0.4572 -0.7708
  631SOL    MW4 2298   2.980   4.307   0.847  0.1003 -0.0962 -0.1789
  632SOL     OW 2299   5.095   5.921   4.196 -0.2139 -0.2615 -0.0533
  632SOL    HW2 2300   5.069   5.884   4.280 -0.5312  1.2008  0.5090
  632SOL    HW3 2301   5.014   5.955   4.159  0.1133  0.0762 -0.4605
  632SOL    MW4 2302   5.081   5.921   4.202 -0.1040  0.0708 -0.7760
  633SOL     OW 2303   3.728   4.293   4.559  0.0339 -0.2620 -0.9627
  633SOL    HW2 2304   3.776   4.228   4.610  0.4126  0.8170  0.1010
  633SOL    HW3 2305   3.636   4.276   4.579  0.2104  1.6218  2.1034
  633SOL    MW4 2306   3.722   4.282   4.569 -0.4869 -0.2329  0.8127
  634SOL     OW 2307   3.644   4.064   4.333 -0.2174  0.4410 -0.2890
  634SOL    HW2 2308   3.730   4.093   4.363 -0.7116  2.6777 -0.8127
  634SOL    HW3 2309   3.587   4.140   4.348 -2.4200 -1.3950  1.2264
  634SOL    MW4 2310   3.648   4.078   4.339 -0.9867 -0.3053 -0.2096
  635SOL     OW 2311   6.373   4.761   1.590 -0.2469 -0.1247  0.1821
  635SOL    HW2 2312   6.396   4.842   1.636  0.0673  0.2576 -0.6268
  635SOL    HW3 2313   6.363   4.696   1.660  0.7559  0.3067  0.7517
  635SOL    MW4 2314   6.374   4.763   1.606  0.4330 -0.5513 -0.4428
  636SOL     OW 2315   0.981   0.750   4.969 -0.3431  0.2791 -0.0559
  636SOL    HW2 2316   1.022   0.791   5.045  1.5430 -0.1563 -0.7753
  636SOL    HW3 2317   1.051   0.745   4.904 -1.0809 -2.0278 -0.7733
  636SOL    MW4 2318   0.996   0.755   4.971  0.7487 -0.4058  0.3582
  637SOL     OW 2319   1.253   1.980   2.488 -0.7568 -0.7393 -0.2915
  637SOL    HW2 2320   1.314   2.053   2.476 -0.2537 -1.3321 -1.5750
  637SOL    HW3 2321   1.223   1.989   2.578 -0.6250  0.9781 -0.3774
  637SOL    MW4 2322   1.257   1.991   2.498  0.0621  0.9400  0.2625
  638SOL     OW 2323   0.987   5.245   4.370  0.7309  0.2683  0.0693
  638SOL    HW2 2324   1.070   5.206   4.399  1.1843  0.6552 -0.6824
  638SOL    HW3 2325   0.924   5.222   4.439  1.4566 -0.0504  0.6364
  638SOL    MW4 2326   0.990   5.237   4.383  0.2274 -0.6350  0.2713
  639SOL     OW 2327   3.737   5.312   5.367  0.1741  0.5043  0.1135
  639SOL    HW2 2328   3.718   5.237   5.311  1.7446 -0.2912  0.5898
  639SOL    HW3 2329   3.693   5.385   5.323 -2.0980 -0.7778  0.0700
  639SOL    MW4 2330   3.729   5.312   5.353  0.1914  0.2197 -0.0281
  640SOL     OW 2331   6.302   0.366   4.915  0.7785 -0.0404 -0.4345
  640SOL    HW2 2332   6.232   0.432   4.905  1.9468  1.3075 -0.1117
  640SOL    HW3 2333   6.273   0.292   4.862 -1.2161  0.1938  0.2254
  640SOL    MW4 2334   6.289   0.365   4.907  0.2256 -0.2555 -0.3577
  641SOL     OW 2335   2.899   1.716   5.512  0.5874 -0.1187  0.2811
  641SOL    HW2 2336   2.889   1.796   5.563 -1.6420  0.6785 -1.2458
  641SOL    HW3 2337   2.909   1.746   5.422  1.2782 -1.5434 -0.1430
  641SOL    MW4 2338   2.899   1.730   5.507  0.2381  0.0903 -0.0149
  642SOL     OW 2339   2.753   6.061   1.012  0.4946  0.4066 -0.3695
  642SOL    HW2 2340   2.839   6.029   1.038  0.2984  0.8856  0.9569
  642SOL    HW3 2341   2.721   6.109   1.088 -1.9664 -1.7489  0.0774
  642SOL    MW4 2342   2.760   6.063   1.025  0.0319  0.0390  0.7148
  643SOL     OW 2343   0.794   1.769   0.019  0.2544 -0.5867 -0.0309
  643SOL    HW2 2344   0.758   1.754  -0.068 -0.6475 -0.9626  0.3918
  643SOL    HW3 2345   0.758   1.853   0.047 -0.2057 -0.8951  0.3342
  643SOL    MW4 2346   0.785   1.778   0.012  0.3199 -0.6700  0.2676
  644SOL     OW 2347   6.324   5.173   5.192  0.1115 -0.8284 -0.9046
  644SOL    HW2 2348   6.260   5.161   5.262 -0.1417  0.4393 -0.8954
  644SOL    HW3 2349   6.271   5.188   5.114  0.3784  0.3652 -0.8708
  644SOL    MW4 2350   6.309   5.173   5.191  0.1964  0.3657  0.0448
  645SOL     OW 2351   0.924   5.990   6.231 -0.0389  0.1161  0.3664
  645SOL    HW2 2352   0.970   5.955   6.155 -0.2142  2.5639 -0.9997
  645SOL    HW3 2353   0.983   6.057   6.265 -1.2070  1.0943  0.5303
  645SOL    MW4 2354   0.938   5.994   6.225  0.3828  0.5665 -0.1157
  646SOL     OW 2355   0.770   2.419   4.864 -0.4156  0.2628 -0.2669
  646SOL    HW2 2356   0.829   2.494   4.863  0.3904 -0.2458 -3.5784
  646SOL    HW3 2357   0.812   2.355   4.807 -3.1120 -0.9790 -1.0307
  646SOL    MW4 2358   0.783   2.420   4.856  0.0470  0.4379  0.3022
  647SOL     OW 2359   3.136   1.308   5.096  0.3648  0.1975 -0.3192
  647SOL    HW2 2360   3.077   1.239   5.066  2.5124 -1.2743 -1.3609
  647SOL    HW3 2361   3.183   1.268   5.170  3.8739 -0.7850 -2.8418
  647SOL    MW4 2362   3.134   1.293   5.102 -0.0527 -0.0695 -0.6966
  648SOL     OW 2363   2.218   2.186   6.294 -0.1166  0.9885  0.5339
  648SOL    HW2 2364   2.210   2.266   6.241  0.6781  1.2613  0.8128
  648SOL    HW3 2365   2.249   2.120   6.232 -0.5011  0.9691  0.3627
  648SOL    MW4 2366   2.221   2.188   6.279  0.0064  0.0369 -0.8160
  649SOL     OW 2367   6.403   4.925   5.106 -0.0326 -0.2776 -0.4404
  649SOL    HW2 2368   6.499   4.923   5.104 -0.0337 -0.1432 -1.0976
  649SOL    HW3 2369   6.381   5.016   5.128 -0.0139 -0.4409  0.2775
  649SOL    MW4 2370   6.413   4.937   5.108 -0.0218  0.2443 -0.0448
  650SOL     OW 2371   5.032   4.234   5.051 -0.1746  0.0480  0.7531
  650SOL    HW2 2372   5.038   4.192   5.137 -2.2663  1.1167  1.4850
  650SOL    HW3 2373   5.079   4.317   5.062  1.3973 -0.7162  0.1769
  650SOL    MW4 2374   5.039   4.239   5.064  0.0172 -0.1504 -0.4213
  651SOL     OW 2375   5.181   1.186   3.263 -0.1631 -0.5916  0.8392
  651SOL    HW2 2376   5.274   1.210   3.269 -0.5808  1.7358 -0.6590
  651SOL    HW3 2377   5.178   1.115   3.199  0.4256  0.9209 -0.9562
  651SOL    MW4 2378   5.193   1.180   3.256  0.1098 -0.6431  0.4686
  652SOL     OW 2379   3.693   2.707   1.518 -0.4169 -0.1787  0.1528
  652SOL    HW2 2380   3.740   2.720   1.436  0.1842 -0.9779  0.3657
  652SOL    HW3 2381   3.657   2.794   1.539 -0.3270  0.0925 -0.7938
  652SOL    MW4 2382   3.695   2.720   1.510  0.0349  0.2309  0.1071
  653SOL     OW 2383   5.225   4.035   4.566 -0.0114  0.0576  0.4044
  653SOL    HW2 2384   5.169   4.089   4.622  0.4573 -0.1304  1.0599
  653SOL    HW3 2385   5.171   3.959   4.544 -0.5540  0.6085 -0.2455
  653SOL    MW4 2386   5.211   4.032   4.570 -0.0436 -0.0367  0.0084
  654SOL     OW 2387   6.420   3.874   4.136 -0.4787 -0.3036 -0.0404
  654SOL    HW2 2388   6.408   3.934   4.063 -0.6343 -0.6172 -0.2773
  654SOL    HW3 2389   6.514   3.867   4.146 -0.4495 -0.6002 -0.4990
  654SOL    MW4 2390   6.430   3.881   4.128  0.3018  0.1938  0.2057
  655SOL     OW 2391   5.993   1.901   2.844  0.2051 -0.4981  0.5010
  655SOL    HW2 2392   6.075   1.866   2.808 -0.0424 -1.1726  0.5685
  655SOL    HW3 2393   5.945   1.933   2.768  1.1642  1.3225  0.6074
  655SOL    MW4 2394   5.997   1.900   2.829  0.4610  0.0901  0.7293
  656SOL     OW 2395   5.717   5.969   2.867 -0.1639  0.7263  0.0362
  656SOL    HW2 2396   5.626   5.952   2.894 -0.1328 -1.0421 -0.8407
  656SOL    HW3 2397   5.766   5.893   2.897  0.9962  1.5105  0.2121
  656SOL    MW4 2398   5.711   5.957   2.874 -0.0141 -0.1130 -0.8100
  657SOL     OW 2399   4.915   5.624   2.590  0.4332  0.7658  0.4816
  657SOL    HW2 2400   4.855   5.698   2.598 -1.0505 -0.4486  1.0928
  657SOL    HW3 2401   4.966   5.643   2.511 -0.4293  2.0722  0.2008
  657SOL    MW4 2402   4.914   5.636   2.580  0.0496  0.6512  0.0117
  658SOL     OW 2403   4.065   2.074   1.513  0.3257  0.2430  0.1194
  658SOL    HW2 2404   4.025   2.070   1.426 -0.3098 -1.0736  0.4406
  658SOL    HW3 2405   4.142   2.017   1.506  0.3167  0.1983  0.4002
  658SOL    MW4 2406   4.070   2.066   1.500 -0.3097 -0.8047  0.2718
  659SOL     OW 2407   4.232   2.666   0.208 -0.7149 -0.2114  0.6092
  659SOL    HW2 2408   4.285   2.741   0.232 -0.7063  0.0671 -0.2614
  659SOL    HW3 2409   4.159   2.703   0.158  0.3572 -0.9405 -1.6078
  659SOL    MW4 2410   4.229   2.681   0.204  0.0284  0.2145 -0.4245
  660SOL     OW 2411   2.809   3.529   5.873  0.0497 -0.1108  0.0339
  660SOL    HW2 2412   2.715   3.528   5.857  0.2863 -1.1481 -1.4104
  660SOL    HW3 2413   2.818   3.505   5.965 -1.0332 -1.4962 -0.1990
  660SOL    MW4 2414   2.798   3.526   5.883  0.3900 -0.7996 -0.2863
  661SOL     OW 2415   5.557   1.900   0.095  0.2424 -0.4151  0.1706
  661SOL    HW2 2416   5.625   1.851   0.048  0.5142 -0.6290  0.7725
  661SOL    HW3 2417   5.484   1.906   0.033  0.5348 -0.8326 -0.2179
  661SOL    MW4 2418   5.556   1.894   0.080 -0.5211  0.5181  0.0135
  662SOL     OW 2419   6.038   5.590   5.723  0.5068 -0.3066  0.2464
  662SOL    HW2 2420   6.048   5.684   5.710 -1.2431  0.0084  0.8914
  662SOL    HW3 2421   6.076   5.574   5.809 -0.2219  0.0532  0.6547
  662SOL    MW4 2422   6.044   5.600   5.733 -0.1371 -0.5740  0.2471
  663SOL     OW 2423   0.312   2.531   1.534 -0.1077  0.5006  0.3314
  663SOL    HW2 2424   0.237   2.584   1.562  0.0071  0.6783  0.3027
  663SOL    HW3 2425   0.277   2.476   1.464  0.2518  1.9738 -1.0540
  663SOL    MW4 2426   0.298   2.531   1.528 -0.6265  0.0457  0.3141
  664SOL     OW 2427   2.857   5.772   4.198 -0.2314 -0.6244 -0.1647
  664SOL    HW2 2428   2.949   5.746   4.207 -0.5200 -2.7878 -2.1902
  664SOL    HW3 2429   2.851   5.810   4.110 -1.0125  0.9701  0.5408
  664SOL    MW4 2430   2.868   5.773   4.187 -0.5504 -0.5624  0.3580
  665SOL     OW 2431   3.319   0.467   4.522 -0.4989  0.2061  0.1386
  665SOL    HW2 2432   3.321   0.490   4.615  1.2048  1.1970 -0.0972
  665SOL    HW3 2433   3.308   0.551   4.477 -1.6346 -0.2980 -0.5679
  665SOL    MW4 2434   3.318   0.482   4.529 -0.4055 -0.1909  0.2424
  666SOL     OW 2435   1.656   6.091   0.735  0.0293  0.3903  0.2433
  666SOL    HW2 2436   1.750   6.081   0.723  0.0970 -0.0601  1.0767
  666SOL    HW3 2437   1.623   6.002   0.742 -0.5469  0.5269 -0.6275
  666SOL    MW4 2438   1.664   6.078   0.735  0.0909 -0.1371  0.4916
  667SOL     OW 2439   4.935   1.975   2.195  0.2479 -0.2850  0.1363
  667SOL    HW2 2440   4.963   2.000   2.283 -0.1243 -0.9282  0.4442
  667SOL    HW3 2441   4.927   2.058   2.148 -2.7096  0.4227  1.6368
  667SOL    MW4 2442   4.937   1.989   2.201 -0.5269 -0.6528  0.0402
  668SOL     OW 2443   2.730   5.164   0.429  0.6592 -0.0403  0.3818
  668SOL    HW2 2444   2.772   5.231   0.482 -0.6342  0.5192  0.7383
  668SOL    HW3 2445   2.650   5.205   0.397  0.3631 -1.0744 -0.2546
  668SOL    MW4 2446   2.725   5.178   0.432  0.3261  0.5086 -0.2838
  669SOL     OW 2447   4.283   2.839   2.270 -0.2987 -0.3071 -0.0360
  669SOL    HW2 2448   4.254   2.848   2.179 -1.2930 -2.4152  0.0008
  669SOL    HW3 2449   4.209   2.870   2.322  0.5593  1.6307  0.1083
  669SOL    MW4 2450   4.269   2.844   2.265  0.7149 -0.0008  0.1186
  670SOL     OW 2451   5.183   1.937   3.701  0.3722  0.6260  0.2280
  670SOL    HW2 2452   5.240   1.998   3.656  2.4033 -2.0873 -1.1814
  670SOL    HW3 2453   5.139   1.888   3.631 -0.2241 -0.3675  1.2543
  670SOL    MW4 2454   5.185   1.938   3.686  0.0874  0.3523 -0.1710
  671SOL     OW 2455   3.686   3.197   4.435  0.1215  0.1682  0.0528
  671SOL    HW2 2456   3.722   3.120   4.389 -1.9258 -0.0235 -1.3837
  671SOL    HW3 2457   3.762   3.252   4.452  1.5336 -1.7197  0.2707
  671SOL    MW4 2458   3.701   3.194   4.431 -0.1749  0.7876 -0.0816
  672SOL     OW 2459   2.971   2.348   0.182 -0.8522  0.2676  0.3076
  672SOL    HW2 2460   3.023   2.385   0.254 -0.3212 -1.2779  0.7666
  672SOL    HW3 2461   2.936   2.424   0.136 -0.1397  1.3170  1.4307
  672SOL    MW4 2462   2.973   2.363   0.186  0.7765 -0.1510  0.4551
  673SOL     OW 2463   4.595   4.481   3.815  0.8515  0.1742 -0.3630
  673SOL    HW2 2464   4.686   4.455   3.823  0.4459 -1.5537 -0.8569
  673SOL    HW3 2465   4.556   4.413   3.759 -0.7746  0.7490  0.0221
  673SOL    MW4 2466   4.602   4.468   3.809 -0.3804  0.5508 -0.8771
  674SOL     OW 2467   4.469   1.321   4.842  0.4377 -0.2361 -0.0517
  674SOL    HW2 2468   4.448   1.264   4.916  0.7443  0.9637  1.0040
  674SOL    HW3 2469   4.540   1.276   4.796  0.4373 -0.8635  0.5462
  674SOL    MW4 2470   4.476   1.307   4.846  0.5701  0.6768  0.5387
  675SOL     OW 2471   4.234   0.617   4.573  0.3970 -0.3381  0.1373
  675SOL    HW2 2472   4.182   0.697   4.573 -1.7852 -1.6354  1.3244
  675SOL    HW3 2473   4.171   0.548   4.596  2.3554 -2.2671  0.0386
  675SOL    MW4 2474   4.219   0.618   4.576  0.3560  0.4177  0.3286
  676SOL     OW 2475   1.753   6.202   3.406 -0.1538 -0.1265  0.5000
  676SOL    HW2 2476   1.787   6.124   3.361 -2.4213 -1.2827  0.6161
  676SOL    HW3 2477   1.830   6.246   3.439  1.3058 -1.6785 -0.6310
  676SOL    MW4 2478   1.768   6.197   3.404 -0.2202  0.1177  0.2335
  677SOL     OW 2479   0.255   2.386   1.278  0.0241 -0.9392  0.3301
  677SOL    HW2 2480   0.306   2.314   1.240 -0.0440 -1.5940  1.4424
  677SOL    HW3 2481   0.205   2.422   1.205  0.6980 -1.4792 -0.4046
  677SOL    MW4 2482   0.255   2.382   1.263 -0.1968 -0.0771  0.6343
  678SOL     OW 2483   0.863   3.832   1.378  0.2454 -0.3420 -0.1449
  678SOL    HW2 2484   0.921   3.789   1.316  1.4686 -0.9429  1.3512
  678SOL    HW3 2485   0.776   3.825   1.338  0.9520 -0.8897 -1.6671
  678SOL    MW4 2486   0.859   3.825   1.365 -0.5276  0.0059 -0.0126
  679SOL     OW 2487   4.641   6.269   5.530  0.8909  0.4588 -0.0445
  679SOL    HW2 2488   4.592   6.338   5.573 -0.1334  0.1919 -0.7506
  679SOL    HW3 2489   4.665   6.209   5.600 -1.2561 -0.2733  0.1179
  679SOL    MW4 2490   4.638   6.270   5.545 -0.1523 -0.1932 -0.3905
  680SOL     OW 2491   6.282   5.054   3.319 -0.0559  0.3402  0.3260
  680SOL    HW2 2492   6.209   5.084   3.265 -1.4419 -1.9520  0.7769
  680SOL    HW3 2493   6.241   5.015   3.396  1.6172 -0.9653  0.6204
  680SOL    MW4 2494   6.267   5.053   3.322 -0.2245  0.0068 -0.2756
  681SOL     OW 2495   1.140   4.605   2.381 -0.1974  0.2769  0.3790
  681SOL    HW2 2496   1.235   4.593   2.379 -0.0546  0.8464 -3.1339
  681SOL    HW3 2497   1.128   4.688   2.427  1.1048  0.6564  0.0832
  681SOL    MW4 2498   1.151   4.615   2.387 -0.0561  0.2705 -0.1727
  682SOL     OW 2499   5.713   0.627   5.289  0.0400 -0.1728 -0.6136
  682SOL    HW2 2500   5.652   0.565   5.329 -0.4563  0.0604 -1.0093
  682SOL    HW3 2501   5.705   0.706   5.343  2.5551 -1.2078  1.5267
  682SOL    MW4 2502   5.704   0.629   5.302 -0.3549 -0.2554  0.1171
  683SOL     OW 2503   3.597   3.090   0.863 -0.0553 -0.1765  0.4317
  683SOL    HW2 2504   3.629   3.001   0.846 -1.5767 -0.4398 -1.4495
  683SOL    HW3 2505   3.666   3.147   0.829  0.9756 -0.6075  1.7416
  683SOL    MW4 2506   3.610   3.086   0.856 -0.1098 -0.2316 -0.5780
  684SOL     OW 2507   5.177   5.127   0.016  0.5668  0.1823  0.0813
  684SOL    HW2 2508   5.134   5.149  -0.067  0.1203  1.0707  0.5370
  684SOL    HW3 2509   5.236   5.055  -0.006 -0.7504 -0.7276 -0.6899
  684SOL    MW4 2510   5.179   5.120   0.002 -0.5937  0.1830 -0.6735
  685SOL     OW 2511   2.225   0.497   4.975  0.4945 -0.4401 -0.0236
  685SOL    HW2 2512   2.316   0.504   4.947  0.1687  0.8123 -0.8767
  685SOL    HW3 2513   2.190   0.585   4.963 -0.2737 -0.3411  2.3423
  685SOL    MW4 2514   2.232   0.510   4.970  0.3503 -0.5496  0.0666
  686SOL     OW 2515   3.730   5.752   3.226  0.0580  0.2348  0.6781
  686SOL    HW2 2516   3.716   5.744   3.131  0.0539 -1.5188  0.7933
  686SOL    HW3 2517   3.821   5.778   3.235 -0.1406  1.1533  0.1951
  686SOL    MW4 2518   3.740   5.755   3.214  0.0983  0.1163  0.4879
  687SOL     OW 2519   0.366   0.633   3.736  0.6660  0.7717 -1.1072
  687SOL    HW2 2520   0.271   0.630   3.740  0.6450  1.5004 -0.8641
  687SOL    HW3 2521   0.392   0.673   3.819  1.0946  2.0732 -1.8401
  687SOL    MW4 2522   0.357   0.638   3.748 -0.4789  0.7703 -0.1039
  688SOL     OW 2523   5.757   1.793   5.583  0.4491 -0.1913 -0.3335
  688SOL    HW2 2524   5.739   1.881   5.549  1.5048  0.1637 -0.0033
  688SOL    HW3 2525   5.841   1.801   5.628 -0.6433 -0.7241  1.9916
  688SOL    MW4 2526   5.765   1.806   5.585  0.5582 -0.2773 -0.5649
  689SOL     OW 2527   2.363   5.350   1.917  0.1629 -0.2676  0.0975
  689SOL    HW2 2528   2.413   5.302   1.984 -0.6007 -2.5147 -0.8341
  689SOL    HW3 2529   2.373   5.296   1.839 -0.6025  1.2684 -1.0898
  689SOL    MW4 2530   2.371   5.336   1.916  0.2139 -0.0118 -0.5483
  690SOL     OW 2531   2.027   3.458   1.405 -0.0653 -0.8882 -0.2134
  690SOL    HW2 2532   2.116   3.491   1.394 -0.0972 -0.7967 -0.1948
  690SOL    HW3 2533   1.980   3.529   1.448 -0.1334 -0.9577 -0.1721
  690SOL    MW4 2534   2.033   3.472   1.410 -0.0986 -0.3449  0.1443
  691SOL     OW 2535   1.634   4.507   5.210 -0.3089 -0.3390 -0.0458
  691SOL    HW2 2536   1.557   4.524   5.265  1.0308 -0.3191  1.9335
  691SOL    HW3 2537   1.600   4.457   5.136 -2.4330  0.8448  0.0513
  691SOL    MW4 2538   1.619   4.503   5.208 -0.4618  0.6367  0.1012
  692SOL     OW 2539   3.792   2.163   0.986 -0.0709 -0.7944  0.0158
  692SOL    HW2 2540   3.750   2.239   1.026 -0.3733 -1.2012  0.4831
  692SOL    HW3 2541   3.846   2.200   0.916 -0.6481 -0.1984 -0.1331
  692SOL    MW4 2542   3.794   2.178   0.982  0.2807  0.0687 -0.4258
  693SOL     OW 2543   1.199   1.224   1.423  0.0601  0.1534  0.4170
  693SOL    HW2 2544   1.181   1.301   1.477  0.3140 -0.3257  1.1947
  693SOL    HW3 2545   1.259   1.171   1.475 -0.3674 -0.7314  0.0377
  693SOL    MW4 2546   1.204   1.227   1.437  0.3185 -0.0179 -0.1069
  694SOL     OW 2547   5.415   5.534   0.626  0.2864  0.1662  0.8037
  694SOL    HW2 2548   5.459   5.567   0.547  0.6924 -0.4405  0.7685
  694SOL    HW3 2549   5.324   5.561   0.616  0.4498  0.5825  0.4003
  694SOL    MW4 2550   5.409   5.542   0.614  0.5611  0.1519  0.0158
  695SOL     OW 2551   6.049   2.614   4.288 -0.2812 -0.0649  0.3737
  695SOL    HW2 2552   5.987   2.674   4.247 -1.1483 -0.2997  1.2951
  695SOL    HW3 2553   6.121   2.608   4.226  1.0516  3.8278  1.2378
  695SOL    MW4 2554   6.050   2.621   4.275  0.4993  0.4079  0.5175
  696SOL     OW 2555   2.226   2.868   5.839  0.1171 -0.2446 -0.1345
  696SOL    HW2 2556   2.316   2.876   5.809  0.0671 -0.9014 -0.4714
  696SOL    HW3 2557   2.233   2.828   5.926  0.1417 -0.5419 -0.2717
  696SOL    MW4 2558   2.239   2.864   5.847  1.1927 -0.1876  0.0478
  697SOL     OW 2559   0.188   5.268   2.067  0.6502  0.1076 -0.1110
  697SOL    HW2 2560   0.215   5.178   2.048 -0.8606 -0.6135  0.9733
  697SOL    HW3 2561   0.226   5.288   2.152  0.3052  0.1925  0.0258
  697SOL    MW4 2562   0.196   5.259   2.076  0.3707 -0.3492  0.6039
  698SOL     OW 2563   3.071   1.664   2.979  0.3234 -0.1565  0.0460
  698SOL    HW2 2564   2.985   1.634   2.952  0.2658 -4.1144  3.6165
  698SOL    HW3 2565   3.056   1.705   3.064  1.7404  1.6272 -0.4936
  698SOL    MW4 2566   3.058   1.666   2.987 -0.7116 -0.0196  0.1288
  699SOL     OW 2567   5.352   4.028   5.034  0.3206 -0.4936  0.2445
  699SOL    HW2 2568   5.291   3.978   4.980  0.4923 -0.5041  0.0550
  699SOL    HW3 2569   5.385   4.097   4.975  0.2768 -0.3154  0.4282
  699SOL    MW4 2570   5.349   4.031   5.019  0.3440  0.1320 -0.1200
  700SOL     OW 2571   2.541   5.557   2.726 -0.0938  0.3595 -0.2913
  700SOL    HW2 2572   2.547   5.461   2.728 -0.2758  0.3582  0.5113
  700SOL    HW3 2573   2.472   5.575   2.663 -0.9413 -0.0972  0.4800
  700SOL    MW4 2574   2.533   5.546   2.718 -0.0386  0.0029  0.2521
  701SOL     OW 2575   6.147   4.706   3.561  0.4219  0.2733 -0.1981
  701SOL    HW2 2576   6.176   4.627   3.607 -0.4905  0.9297  1.5848
  701SOL    HW3 2577   6.067   4.732   3.606  1.2227  2.7867 -0.0539
  701SOL    MW4 2578   6.141   4.699   3.573  0.0876 -0.4159 -0.4116
  702SOL     OW 2579   6.113   0.507   1.400 -0.3367  0.1493 -0.1816
  702SOL    HW2 2580   6.188   0.559   1.371 -0.8279  0.8613 -0.1976
  702SOL    HW3 2581   6.086   0.547   1.482  0.0744 -0.8893  0.4842
  702SOL    MW4 2582   6.119   0.519   1.407  0.0614  0.2360  0.2639
  703SOL     OW 2583   5.408   1.378   1.306  0.1446  0.0117 -0.0362
  703SOL    HW2 2584   5.455   1.294   1.309 -1.0349 -0.6432  1.0174
  703SOL    HW3 2585   5.394   1.395   1.213  0.1474 -1.1118 -0.2565
  703SOL    MW4 2586   5.413   1.369   1.294  0.2764 -0.2583 -0.5398
  704SOL     OW 2587   0.101   4.280   5.730  0.2086 -0.0051 -0.5974
  704SOL    HW2 2588   0.090   4.281   5.635  2.1442  1.8018 -0.8803
  704SOL    HW3 2589   0.186   4.321   5.744  0.1787 -0.6767  1.9129
  704SOL    MW4 2590   0.111   4.286   5.719 -0.0788  0.2259  0.2174
  705SOL     OW 2591   2.978   3.643   1.329  0.3731 -0.1288 -0.9246
  705SOL    HW2 2592   2.927   3.718   1.299 -0.8774  0.3532  2.0523
  705SOL    HW3 2593   2.941   3.569   1.280 -1.9104  0.5092 -0.3254
  705SOL    MW4 2594   2.966   3.643   1.318  0.2342 -0.2255 -1.0332
  706SOL     OW 2595   2.789   1.975   3.628 -0.5766 -0.3047  0.0614
  706SOL    HW2 2596   2.787   1.882   3.650  1.9164 -1.2951 -3.1056
  706SOL    HW3 2597   2.715   1.988   3.570 -0.7244 -0.3726  0.2328
  706SOL    MW4 2598   2.779   1.964   3.624 -0.1906 -0.3499  0.3008
  707SOL     OW 2599   1.985   0.351   5.879  0.2890 -0.2004 -0.3854
  707SOL    HW2 2600   2.044   0.407   5.930 -0.6225 -0.3313  0.8535
  707SOL    HW3 2601   1.931   0.307   5.945 -1.3957  0.1335 -1.4824
  707SOL    MW4 2602   1.986   0.352   5.895 -0.8256  0.0059  0.6751
  708SOL     OW 2603   4.195   5.667   2.824  0.4685  0.0625 -0.5283
  708SOL    HW2 2604   4.232   5.581   2.805  0.4755 -0.1546  0.4191
  708SOL    HW3 2605   4.123   5.649   2.885 -0.1313  0.6403 -1.0446
  708SOL    MW4 2606   4.190   5.653   2.830  0.2812  0.3771  0.1156
  709SOL     OW 2607   0.697   3.029   6.397 -0.5403 -0.1120  0.3659
  709SOL    HW2 2608   0.649   3.111   6.387  1.2392  0.7476 -2.2451
  709SOL    HW3 2609   0.706   2.996   6.308  2.0176 -1.1871  0.9401
  709SOL    MW4 2610   0.692   3.036   6.384 -0.1868 -0.9083  0.4026
  710SOL     OW 2611   4.180   0.532   0.327  0.2713  0.3717 -0.1117
  710SOL    HW2 2612   4.221   0.463   0.379  1.3249  0.4971 -0.7533
  710SOL    HW3 2613   4.103   0.490   0.288  0.9197 -0.4484 -0.5222
  710SOL    MW4 2614   4.175   0.517   0.329 -0.0642  0.1882 -0.1446
  711SOL     OW 2615   5.258   0.050   5.833 -0.0987  0.3115  0.2063
  711SOL    HW2 2616   5.228  -0.027   5.785 -0.3589 -0.5627  1.7041
  711SOL    HW3 2617   5.294   0.015   5.914 -0.7208  1.7953  1.1649
  711SOL    MW4 2618   5.259   0.035   5.837 -0.3088 -0.2722 -0.3323
  712SOL     OW 2619   0.367   1.749   2.385 -0.2839 -0.1667  0.5438
  712SOL    HW2 2620   0.290   1.701   2.417 -0.9623 -0.3833 -1.2627
  712SOL    HW3 2621   0.397   1.699   2.309  0.2393  1.1540 -0.1681
  712SOL    MW4 2622   0.361   1.736   2.379 -0.5487  0.4702 -0.2424
  713SOL     OW 2623   6.114   0.269   2.775  0.1233 -0.2192 -0.2803
  713SOL    HW2 2624   6.090   0.289   2.685  0.3990  0.2425 -0.2531
  713SOL    HW3 2625   6.209   0.256   2.772  0.1059 -0.4044 -0.0907
  713SOL    MW4 2626   6.124   0.270   2.763 -0.3316 -0.6219  0.0188
  714SOL     OW 2627   2.075   2.941   3.015  0.4363  0.7600 -0.8301
  714SOL    HW2 2628   2.152   2.887   2.998  0.0552 -0.5195  1.1261
  714SOL    HW3 2629   2.111   3.023   3.050  0.9398  0.1596  0.1011
  714SOL    MW4 2630   2.090   2.945   3.018  0.3831 -0.6409  0.1312
  715SOL     OW 2631   4.470   4.737   4.861  0.1317  0.3181  0.6104
  715SOL    HW2 2632   4.517   4.654   4.858  0.5366  0.5703 -0.6932
  715SOL    HW3 2633   4.532   4.799   4.899 -0.5101 -0.1354  2.5633
  715SOL    MW4 2634   4.484   4.734   4.866 -0.5432 -0.1123 -0.4243
  716SOL     OW 2635   1.007   4.899   3.756 -0.3041  0.1737  0.1322
  716SOL    HW2 2636   1.005   4.830   3.689  1.5430  0.6689 -0.5128
  716SOL    HW3 2637   0.924   4.890   3.803 -2.0601  0.2978 -2.7033
  716SOL    MW4 2638   0.996   4.889   3.753 -0.2323  0.8376  0.2695
  717SOL     OW 2639   6.205   2.555   1.531  0.1281  0.2203 -0.3129
  717SOL    HW2 2640   6.271   2.551   1.600  0.4811 -0.0093 -0.6574
  717SOL    HW3 2641   6.245   2.507   1.458 -0.0804  0.7861 -0.8022
  717SOL    MW4 2642   6.219   2.548   1.531 -0.1121 -0.0735 -0.4003
  718SOL     OW 2643   4.738   0.198   4.310  0.1595  0.0065  0.5478
  718SOL    HW2 2644   4.741   0.234   4.221 -0.2846  0.1019  0.5676
  718SOL    HW3 2645   4.816   0.231   4.353  0.3316  0.0306  0.2169
  718SOL    MW4 2646   4.749   0.207   4.304  0.4856  0.0279 -0.0832
  719SOL     OW 2647   4.437   5.214   0.436 -0.1205  0.7969  0.4510
  719SOL    HW2 2648   4.404   5.204   0.526 -0.4479 -0.7840  0.1814
  719SOL    HW3 2649   4.522   5.256   0.447 -0.1125  0.5423  1.5312
  719SOL    MW4 2650   4.444   5.218   0.449 -0.4521 -0.3669  0.4949
  720SOL     OW 2651   1.732   0.392   3.943  0.3060  0.7167  0.6124
  720SOL    HW2 2652   1.705   0.478   3.975 -0.5521  0.7248 -0.0794
  720SOL    HW3 2653   1.749   0.406   3.850  1.7094  0.4690  0.8168
  720SOL    MW4 2654   1.731   0.405   3.935 -0.8697 -0.1576 -0.4613
  721SOL     OW 2655   3.174   6.329   0.696  0.0357 -0.5136  0.6693
  721SOL    HW2 2656   3.172   6.364   0.607  0.9395 -1.0397  0.4233
  721SOL    HW3 2657   3.176   6.407   0.752 -1.7118 -0.1640  0.3019
  721SOL    MW4 2658   3.174   6.344   0.692 -0.1633  0.2319 -0.3251
  722SOL     OW 2659   1.755   5.093   5.614  0.0418  0.4927  0.0343
  722SOL    HW2 2660   1.791   5.154   5.679  0.0084  0.7290 -0.1676
  722SOL    HW3 2661   1.758   5.142   5.531 -0.3766  0.3718 -0.0552
  722SOL    MW4 2662   1.760   5.108   5.611  0.0175 -0.9836  0.1840
  723SOL     OW 2663   5.891   2.699   5.379 -0.4904 -0.1459 -0.3824
  723SOL    HW2 2664   5.974   2.717   5.334 -0.9691  1.2520 -0.7589
  723SOL    HW3 2665   5.832   2.671   5.309 -0.7349  0.2897 -0.3549
  723SOL    MW4 2666   5.894   2.698   5.364 -0.1780  0.4354  0.1562
  724SOL     OW 2667   3.574   0.336   0.770 -0.1483 -0.1016 -0.0208
  724SOL    HW2 2668   3.575   0.395   0.694  0.8121  1.1689  0.9378
  724SOL    HW3 2669   3.544   0.252   0.734 -0.1898  0.5840 -1.7040
  724SOL    MW4 2670   3.570   0.333   0.755 -0.4395  0.0022 -0.7537
  725SOL     OW 2671   2.345   2.235   2.312  0.1569  0.3772  0.1847
  725SOL    HW2 2672   2.398   2.271   2.384  0.9727 -0.9824  0.2900
  725SOL    HW3 2673   2.257   2.269   2.329  0.5087  0.7747  1.3498
  725SOL    MW4 2674   2.340   2.244   2.324  0.4314  0.1991  0.0475
  726SOL     OW 2675   0.582   5.218   4.814 -0.1935 -0.5200  0.1076
  726SOL    HW2 2676   0.526   5.287   4.778  1.3084  0.0517 -1.2337
  726SOL    HW3 2677   0.671   5.250   4.800  0.5097 -1.1050  2.7582
  726SOL    MW4 2678   0.587   5.231   4.808  0.1627  0.2098 -0.0773
  727SOL     OW 2679   3.305   1.783   3.488  0.1794 -0.3906  0.3684
  727SOL    HW2 2680   3.397   1.763   3.471  0.4439  0.5922  0.6270
  727SOL    HW3 2681   3.265   1.697   3.506  1.3085 -0.6918  1.5537
  727SOL    MW4 2682   3.312   1.769   3.488 -0.5097  0.2190 -0.0261
  728SOL     OW 2683   5.373   0.057   5.037  0.2130 -0.3896  0.3022
  728SOL    HW2 2684   5.283   0.079   5.059 -0.1496 -2.0713  0.6679
  728SOL    HW3 2685   5.411   0.025   5.120  0.5946 -1.3561 -0.2341
  728SOL    MW4 2686   5.366   0.056   5.051  0.1289  0.4139 -0.0097
  729SOL     OW 2687   1.590   1.589   1.400  0.7279  0.1702  0.3341
  729SOL    HW2 2688   1.529   1.600   1.473  0.0482 -0.2353 -0.1614
  729SOL    HW3 2689   1.537   1.550   1.330  1.0876  1.5838 -0.7674
  729SOL    MW4 2690   1.575   1.585   1.400 -0.2286  0.4231 -0.5549
  730SOL     OW 2691   1.771   2.441   5.923 -0.3671 -0.2492 -0.2499
  730SOL    HW2 2692   1.809   2.362   5.883  3.7976  1.3898 -0.0518
  730SOL    HW3 2693   1.797   2.436   6.015 -0.6674  1.0088 -0.0779
  730SOL    MW4 2694   1.780   2.430   5.930  0.2898 -0.5931 -0.0754
  731SOL     OW 2695   6.206   0.913   2.414  0.3983 -0.1979 -0.2634
  731SOL    HW2 2696   6.181   0.840   2.471 -1.4183  0.3330 -0.3333
  731SOL    HW3 2697   6.147   0.906   2.339  1.1829  0.5076 -0.9650
  731SOL    MW4 2698   6.195   0.902   2.412  0.0073  0.4211  0.0883
  732SOL     OW 2699   6.400   2.530   6.065 -0.7753 -0.3468 -0.5854
  732SOL    HW2 2700   6.477   2.539   6.122 -0.1286 -0.8661 -1.3417
  732SOL    HW3 2701   6.437   2.505   5.980 -1.7791 -0.4438 -1.0034
  732SOL    MW4 2702   6.415   2.528   6.062 -0.0859  0.0667  0.1697
  733SOL     OW 2703   3.858   0.976   1.859  0.2371 -0.1487  0.4414
  733SOL    HW2 2704   3.881   0.966   1.767 -1.4006  2.7062 -0.4032
  733SOL    HW3 2705   3.941   0.974   1.905  1.1860 -0.6831 -1.2094
  733SOL    MW4 2706   3.872   0.975   1.853  0.1899 -0.2612  0.1175
  734SOL     OW 2707   1.992   2.401   5.046  0.0238 -0.2440  0.1814
  734SOL    HW2 2708   1.975   2.400   4.951  0.9146  1.3695 -0.0505
  734SOL    HW3 2709   2.035   2.486   5.060 -0.3052 -0.3669  2.0765
  734SOL    MW4 2710   1.995   2.412   5.035  0.2450  0.1574  0.3201
  735SOL     OW 2711   0.917   3.387   2.126  0.2942 -0.1925  0.4477
  735SOL    HW2 2712   0.867   3.348   2.198  0.1715  1.1629  1.1284
  735SOL    HW3 2713   0.996   3.333   2.120 -0.5887 -1.5294  0.2693
  735SOL    MW4 2714   0.921   3.374   2.135 -0.0838  0.0180 -0.4521
  736SOL     OW 2715   1.859   0.031   1.920 -0.4961  0.2897  0.3322
  736SOL    HW2 2716   1.895  -0.031   1.983 -1.6305  0.5880  1.3157
  736SOL    HW3 2717   1.907   0.112   1.936 -0.3089  0.1759  0.3461
  736SOL    MW4 2718   1.870   0.034   1.931  0.0381 -0.1450  0.6765
  737SOL     OW 2719   0.315   5.781   4.656  0.0661  0.2002 -0.4960
  737SOL    HW2 2720   0.230   5.737   4.655  0.1422  0.0488 -0.4425
  737SOL    HW3 2721   0.377   5.712   4.632  0.2192  0.2107 -0.1349
  737SOL    MW4 2722   0.312   5.766   4.652  0.1114  0.5330 -0.1856
  738SOL     OW 2723   1.086   1.676   3.848  0.2723  0.2648  0.4466
  738SOL    HW2 2724   1.110   1.658   3.939 -1.4196  0.6657  0.9941
  738SOL    HW3 2725   1.005   1.627   3.834 -1.6956  3.2416  0.4263
  738SOL    MW4 2726   1.079   1.667   3.858  0.2204  0.7706 -0.1508
  739SOL     OW 2727   5.761   5.079   1.865 -0.4071  0.3650 -0.3726
  739SOL    HW2 2728   5.839   5.080   1.808  0.8986 -3.0043  1.0582
  739SOL    HW3 2729   5.785   5.134   1.939  0.4309 -0.1971 -0.2080
  739SOL    MW4 2730   5.775   5.086   1.867 -0.8267 -0.0904  0.1940
  740SOL     OW 2731   5.825   3.701   1.090  0.2427 -0.1681  0.0417
  740SOL    HW2 2732   5.845   3.639   1.020 -0.9493 -1.0223  0.4200
  740SOL    HW3 2733   5.783   3.775   1.045  1.1503  0.1183 -0.3484
  740SOL    MW4 2734   5.822   3.703   1.075  0.2290 -0.1684  0.3576
  741SOL     OW 2735   2.228   0.561   3.296  0.4396 -0.1014  0.1173
  741SOL    HW2 2736   2.281   0.576   3.217 -0.2973 -0.5507 -0.4752
  741SOL    HW3 2737   2.232   0.466   3.309 -1.5722 -0.3835 -0.9320
  741SOL    MW4 2738   2.236   0.550   3.287 -0.0700  0.2532  0.7590
  742SOL     OW 2739   2.929   0.459   4.314  0.0746  0.2402 -0.0923
  742SOL    HW2 2740   2.942   0.465   4.408 -0.6980 -0.8019  0.0960
  742SOL    HW3 2741   2.947   0.367   4.293  1.9245  0.8134 -1.2413
  742SOL    MW4 2742   2.933   0.448   4.323 -0.0888  0.1823 -0.2598
  743SOL     OW 2743   4.961   2.906   4.903  0.4183  0.1418  0.1928
  743SOL    HW2 2744   5.001   2.984   4.864  0.8625  0.4029  1.1604
  743SOL    HW3 2745   4.911   2.867   4.831  2.1030 -0.0045 -0.9820
  743SOL    MW4 2746   4.960   2.911   4.888  0.2050 -0.3090  0.9302
  744SOL     OW 2747   4.543   2.445   2.942 -0.0220  0.3188 -0.1638
  744SOL    HW2 2748   4.494   2.495   3.007 -1.1235 -0.4561 -0.3640
  744SOL    HW3 2749   4.635   2.468   2.958 -0.4114  1.5083  0.4765
  744SOL    MW4 2750   4.549   2.454   2.953  0.4299  0.3924 -0.4471
  745SOL     OW 2751   0.714   2.439   5.210 -0.9336  0.3942 -0.7437
  745SOL    HW2 2752   0.760   2.357   5.193 -0.1133  0.5881  0.4487
  745SOL    HW3 2753   0.697   2.439   5.304 -1.7826  1.1532 -0.8797
  745SOL    MW4 2754   0.718   2.428   5.220  0.2842  0.0701  0.5550
  746SOL     OW 2755   0.772   4.799   2.506 -0.1314  0.1573 -0.1364
  746SOL    HW2 2756   0.711   4.865   2.539 -1.2261 -0.5386 -0.7069
  746SOL    HW3 2757   0.734   4.771   2.422 -0.5057 -2.2588  0.7755
  746SOL    MW4 2758   0.759   4.804   2.499  0.2949 -0.0901  0.3703
  747SOL     OW 2759   3.625   3.318   4.163 -0.1695  0.4466 -0.5855
  747SOL    HW2 2760   3.714   3.281   4.162  0.1289  1.0541  1.0407
  747SOL    HW3 2761   3.573   3.253   4.210 -0.2736  0.7482 -0.2836
  747SOL    MW4 2762   3.630   3.305   4.169 -0.7006  0.2981  0.1250
  748SOL     OW 2763   1.388   1.527   2.359  0.3650  0.0083 -0.3065
  748SOL    HW2 2764   1.295   1.512   2.380  0.0443  0.7824 -1.0913
  748SOL    HW3 2765   1.432   1.448   2.389 -0.4352 -0.0547  0.7875
  748SOL    MW4 2766   1.381   1.514   2.366  0.4258 -0.1436 -0.0832
  749SOL     OW 2767   2.488   2.663   3.640 -0.5380  0.0720  0.1255
  749SOL    HW2 2768   2.475   2.576   3.678 -0.1012  0.0527  0.2316
  749SOL    HW3 2769   2.481   2.649   3.546  0.6763 -0.2838  0.0754
  749SOL    MW4 2770   2.485   2.650   3.633  0.5527 -0.0056  0.3413
  750SOL     OW 2771   4.204   2.892   4.164 -0.2851 -0.2025 -0.3588
  750SOL    HW2 2772   4.179   2.812   4.211 -1.5059  0.1377 -0.4099
  750SOL    HW3 2773   4.224   2.955   4.234  0.6672 -0.5293 -0.3187
  750SOL    MW4 2774   4.204   2.890   4.180  0.4485 -0.2835 -0.2503
  751SOL     OW 2775   4.402   2.571   5.160  0.9637  0.0548  0.3428
  751SOL    HW2 2776   4.427   2.663   5.163  0.0980  0.3387 -0.9184
  751SOL    HW3 2777   4.373   2.552   5.249 -2.9629  2.1943 -0.2874
  751SOL    MW4 2778   4.402   2.580   5.172 -0.1868 -0.2079  0.2241
  752SOL     OW 2779   0.825   4.364   1.141 -0.0004 -0.1103  0.2646
  752SOL    HW2 2780   0.834   4.271   1.122  0.5238 -0.0343  0.1171
  752SOL    HW3 2781   0.877   4.408   1.074  0.1521  0.2632  0.6171
  752SOL    MW4 2782   0.833   4.358   1.130 -0.0792 -0.0016  0.2629
  753SOL     OW 2783   6.031   0.896   2.230  0.2154 -0.0481 -0.4261
  753SOL    HW2 2784   6.037   0.845   2.149  0.2022  0.1061 -0.5254
  753SOL    HW3 2785   5.977   0.972   2.206 -0.8020 -0.6053  0.0338
  753SOL    MW4 2786   6.024   0.899   2.216 -0.0119  0.0095 -0.8319
  754SOL     OW 2787   5.192   2.462   3.210 -0.1169  0.3692 -0.0334
  754SOL    HW2 2788   5.232   2.505   3.135  0.6408 -0.1831  0.0453
  754SOL    HW3 2789   5.265   2.447   3.271 -0.9224  2.0895  1.4504
  754SOL    MW4 2790   5.207   2.466   3.208 -0.0839  0.0156 -0.2875
  755SOL     OW 2791   3.490   1.331   5.450 -0.6089 -0.4975 -0.2857
  755SOL    HW2 2792   3.487   1.376   5.365 -0.1861  1.8666  0.8609
  755SOL    HW3 2793   3.576   1.290   5.453 -0.2281  0.2649 -0.6075
  755SOL    MW4 2794   3.501   1.331   5.439 -0.1335 -0.5320  0.3034
  756SOL     OW 2795   3.816   3.648   0.557  0.0095 -0.2161 -0.0468
  756SOL    HW2 2796   3.823   3.574   0.495  0.8791 -0.1184 -0.0789
  756SOL    HW3 2797   3.860   3.617   0.636  1.3808  0.6397 -0.4316
  756SOL    MW4 2798   3.823   3.634   0.559  0.5119 -0.0033 -0.2629
  757SOL     OW 2799   0.434   2.304   4.306 -0.4281 -0.1218  0.7023
  757SOL    HW2 2800   0.370   2.286   4.237 -1.3311 -2.3352  2.0017
  757SOL    HW3 2801   0.430   2.399   4.319  0.0192  0.4313 -2.4489
  757SOL    MW4 2802   0.425   2.314   4.298 -0.6778  0.3181 -0.0577
  758SOL     OW 2803   5.210   2.520   4.936 -0.3205  0.3976 -0.3016
  758SOL    HW2 2804   5.260   2.448   4.897  0.3312  1.5687 -1.7207
  758SOL    HW3 2805   5.152   2.477   4.999  1.2290 -1.1946  0.1463
  758SOL    MW4 2806   5.209   2.505   4.939  0.8418 -0.6347 -0.2820
  759SOL     OW 2807   6.099   4.444   1.239  0.1589  0.2518 -0.2433
  759SOL    HW2 2808   6.095   4.394   1.320  2.1130  0.5655  0.0963
  759SOL    HW3 2809   6.155   4.392   1.181  0.2868  0.9119 -0.7276
  759SOL    MW4 2810   6.106   4.431   1.242 -0.6529 -0.1561 -0.0611
  760SOL     OW 2811   1.526   0.779   0.581  0.2842 -0.0092 -0.3266
  760SOL    HW2 2812   1.470   0.776   0.658  0.7310  1.8887  0.1203
  760SOL    HW3 2813   1.492   0.710   0.524 -1.1043 -0.3399  0.8506
  760SOL    MW4 2814   1.514   0.769   0.584  0.0382 -0.3759 -0.9761
  761SOL     OW 2815   1.307   4.591   4.685  0.4414 -0.7520  0.2554
  761SOL    HW2 2816   1.251   4.537   4.742  1.5728 -0.2402  1.9400
  761SOL    HW3 2817   1.335   4.663   4.741  1.1736  0.0988 -1.1505
  761SOL    MW4 2818   1.304   4.593   4.700  0.1906  0.4441 -0.1436
  762SOL     OW 2819   5.129   1.412   2.621  0.0337  0.9298  0.3794
  762SOL    HW2 2820   5.135   1.483   2.557  1.0627  0.3331 -0.2157
  762SOL    HW3 2821   5.111   1.456   2.705 -0.0847  1.8164 -0.1022
  762SOL    MW4 2822   5.127   1.427   2.624 -0.1967 -0.0674 -0.3227
  763SOL     OW 2823   0.842   4.867   0.391  0.2663  0.2973  0.5060
  763SOL    HW2 2824   0.766   4.918   0.420 -1.1574  0.0707 -2.4031
  763SOL    HW3 2825   0.814   4.776   0.402  1.1225  0.1637  1.7034
  763SOL    MW4 2826   0.828   4.862   0.396  0.1948  0.0993 -0.1323
  764SOL     OW 2827   6.149   3.021   3.792  0.2893 -0.4900  0.2470
  764SOL    HW2 2828   6.057   3.048   3.787 -0.0302 -1.6760 -0.6574
  764SOL    HW3 2829   6.161   2.995   3.883 -0.3086 -0.4110  0.3542
  764SOL    MW4 2830   6.139   3.021   3.803 -0.5724  0.2605 -0.1458
  765SOL     OW 2831   5.564   3.404   3.105 -0.2064  0.7993  0.2402
  765SOL    HW2 2832   5.477   3.382   3.138  0.0514 -0.2296  0.2715
  765SOL    HW3 2833   5.601   3.320   3.076  0.3347  1.3961 -0.8407
  765SOL    MW4 2834   5.557   3.390   3.106 -0.3790  0.0022  0.1120
  766SOL     OW 2835   3.173   2.400   4.464 -0.5253  0.1379  0.0349
  766SOL    HW2 2836   3.151   2.483   4.506 -0.3832 -0.0692  0.5250
  766SOL    HW3 2837   3.249   2.368   4.513  0.1361  0.2700 -0.8676
  766SOL    MW4 2838   3.180   2.407   4.476  0.1548 -0.7962  0.1785
  767SOL     OW 2839   0.733   4.291   5.588  0.0703 -0.1791 -0.6236
  767SOL    HW2 2840   0.800   4.230   5.619 -0.1319  0.7576  1.8826
  767SOL    HW3 2841   0.770   4.328   5.508  2.6092  0.3403  0.6868
  767SOL    MW4 2842   0.747   4.288   5.581  0.3489 -0.8248 -0.0928
  768SOL     OW 2843   3.996   2.281   1.672 -0.1006 -0.3705 -0.1053
  768SOL    HW2 2844   4.012   2.211   1.610  1.6272 -0.2171  0.1270
  768SOL    HW3 2845   4.074   2.284   1.727 -1.0103  0.3748  1.2322
  768SOL    MW4 2846   4.008   2.272   1.671  0.3344 -0.6890 -0.5454
  769SOL     OW 2847   0.166   1.319   2.059 -0.4136 -0.4245 -0.1725
  769SOL    HW2 2848   0.098   1.288   1.999  0.1059 -1.9904 -0.0106
  769SOL    HW3 2849   0.247   1.282   2.024 -0.2758 -2.7550  2.3190
  769SOL    MW4 2850   0.168   1.310   2.046  0.1460 -0.1812  0.2809
  770SOL     OW 2851   6.104   2.843   4.450 -0.5544  0.5037 -0.5904
  770SOL    HW2 2852   6.073   2.790   4.377  0.3195 -0.0897 -0.5451
  770SOL    HW3 2853   6.049   2.922   4.447  0.8807  1.5412 -3.2718
  770SOL    MW4 2854   6.093   2.846   4.440  0.0665 -0.2193  0.3030
  771SOL     OW 2855   0.382   4.457   5.746  0.6382 -0.3862 -0.6189
  771SOL    HW2 2856   0.411   4.522   5.682  0.5258 -1.9148 -2.2887
  771SOL    HW3 2857   0.407   4.372   5.708  1.1744 -1.3411  1.6754
  771SOL    MW4 2858   0.389   4.454   5.732  0.1161  0.0231  0.0769
  772SOL     OW 2859   5.928   0.315   5.441  0.5855 -0.0612  0.5796
  772SOL    HW2 2860   5.979   0.253   5.389 -1.5122 -2.5396  1.2879
  772SOL    HW3 2861   5.847   0.326   5.391  0.6937  1.7563  0.7483
  772SOL    MW4 2862   5.924   0.308   5.427  0.1034 -0.0363  0.4132
  773SOL     OW 2863   1.002   4.514   1.288 -0.2129  0.3050  0.3682
  773SOL    HW2 2864   0.938   4.460   1.241  0.8189 -0.0764 -0.6548
  773SOL    HW3 2865   1.084   4.502   1.239  0.9510 -0.1885  2.3180
  773SOL    MW4 2866   1.005   4.505   1.275 -0.3272 -0.3234 -0.5371
  774SOL     OW 2867   2.132   2.378   1.795  0.0092 -0.0123  0.1019
  774SOL    HW2 2868   2.127   2.432   1.874 -0.1602 -1.5494  1.1833
  774SOL    HW3 2869   2.047   2.389   1.753 -1.6519 -2.5219  2.4731
  774SOL    MW4 2870   2.120   2.387   1.800  0.1080  0.2105 -0.1300
  775SOL     OW 2871   2.773   4.820   1.044 -0.2891  0.4883  0.0862
  775SOL    HW2 2872   2.824   4.875   0.984 -0.5771  0.0576 -0.5647
  775SOL    HW3 2873   2.692   4.801   0.996  0.0830 -1.0521  0.0330
  775SOL    MW4 2874   2.769   4.825   1.030 -0.4663  0.1356 -0.0219
  776SOL     OW 2875   5.437   1.129   6.098 -0.3790  0.1180  0.7384
  776SOL    HW2 2876   5.374   1.201   6.095 -1.2346 -0.6149  0.5723
  776SOL    HW3 2877   5.508   1.160   6.154 -1.0873  0.8124  1.2590
  776SOL    MW4 2878   5.438   1.142   6.105  0.3286 -0.1766 -0.1568
  777SOL     OW 2879   1.467   1.671   4.993 -0.6062 -0.0883 -0.3211
  777SOL    HW2 2880   1.378   1.673   4.959 -1.3229  3.3853  1.3039
  777SOL    HW3 2881   1.511   1.745   4.951 -0.6003  2.3741  3.5092
  777SOL    MW4 2882   1.461   1.681   4.983  0.0788  0.5017  0.7766
  778SOL     OW 2883   5.939   0.908   3.562 -0.1545  0.9140  0.2097
  778SOL    HW2 2884   5.901   0.958   3.490 -0.3885 -1.0086 -1.0975
  778SOL    HW3 2885   5.882   0.832   3.571  1.5611 -0.4425  0.3405
  778SOL    MW4 2886   5.927   0.904   3.554 -0.4115  0.1980 -0.3759
  779SOL     OW 2887   5.073   1.767   3.517  0.2073 -0.0349  0.2076
  779SOL    HW2 2888   5.003   1.743   3.578  0.0455  0.8801  0.3920
  779SOL    HW3 2889   5.141   1.700   3.531 -0.3400 -0.5323  0.5159
  779SOL    MW4 2890   5.073   1.755   3.527 -0.4808 -0.4495  0.3004
  780SOL     OW 2891   6.334   6.226   1.275 -0.0548  0.5778 -0.2246
  780SOL    HW2 2892   6.239   6.222   1.291 -0.0490 -0.8047 -0.3475
  780SOL    HW3 2893   6.351   6.149   1.219  1.3701 -0.0893  1.0604
  780SOL    MW4 2894   6.323   6.215   1.269  0.3878 -0.0499 -0.1609
  781SOL     OW 2895   4.090   0.142   5.157  0.2663  0.0175  0.4517
  781SOL    HW2 2896   4.141   0.063   5.177  0.3359 -0.0239  0.1181
  781SOL    HW3 2897   4.024   0.112   5.094  1.4264  0.5886 -1.0835
  781SOL    MW4 2898   4.088   0.127   5.151 -0.1451 -0.2383 -0.1456
  782SOL     OW 2899   4.753   3.715   4.408 -0.3766 -0.8213  0.1066
  782SOL    HW2 2900   4.762   3.742   4.499 -1.2591 -0.2142  0.0278
  782SOL    HW3 2901   4.692   3.779   4.369 -0.4463 -1.3872 -0.7625
  782SOL    MW4 2902   4.746   3.727   4.415 -0.2179 -0.2356 -0.3415
  783SOL     OW 2903   5.787   3.251   4.591  0.1791  0.5721  0.0335
  783SOL    HW2 2904   5.791   3.238   4.496 -0.5876  1.1204 -0.0851
  783SOL    HW3 2905   5.838   3.178   4.627  0.7783  0.5547 -0.8060
  783SOL    MW4 2906   5.794   3.240   4.583 -0.0117 -0.3836  0.4964
  784SOL     OW 2907   0.208   4.957   2.972 -0.5307 -0.3640  0.1074
  784SOL    HW2 2908   0.236   5.027   3.031 -1.3585 -1.4494  1.8838
  784SOL    HW3 2909   0.186   5.002   2.891  1.6164  1.0803  0.2313
  784SOL    MW4 2910   0.209   4.972   2.969 -0.0467  0.3946  0.6646
  785SOL     OW 2911   1.367   2.013   6.261 -0.6383 -0.0828  0.1250
  785SOL    HW2 2912   1.306   1.996   6.333 -0.0991  0.6466  0.7730
  785SOL    HW3 2913   1.314   2.003   6.182 -1.3780 -0.3312  0.6394
  785SOL    MW4 2914   1.352   2.009   6.260  0.5540 -0.0045 -0.5091
  786SOL     OW 2915   4.617   2.671   2.480  0.1370 -0.1260  0.0452
  786SOL    HW2 2916   4.616   2.752   2.532  0.4850 -0.7876  1.1197
  786SOL    HW3 2917   4.532   2.670   2.436 -0.9548 -0.3971  2.0059
  786SOL    MW4 2918   4.606   2.681   2.481 -0.2982 -0.1881 -0.6183
  787SOL     OW 2919   5.266   2.882   3.606  0.2654 -0.5203  0.0060
  787SOL    HW2 2920   5.238   2.791   3.604  0.3187 -0.5387  0.0997
  787SOL    HW3 2921   5.353   2.880   3.646  1.3551 -0.7179 -2.2369
  787SOL    MW4 2922   5.273   2.870   3.611  0.0256  0.3958  0.3534
  788SOL     OW 2923   4.274   1.922   4.755 -0.0044 -0.1559 -0.1404
  788SOL    HW2 2924   4.207   1.904   4.821 -0.8870  0.0819 -0.9589
  788SOL    HW3 2925   4.353   1.940   4.806 -1.1423  2.1030  0.9675
  788SOL    MW4 2926   4.276   1.922   4.771  0.6392  1.0467 -0.5985
  789SOL     OW 2927   4.966   6.197   2.269  0.2620 -0.4128  0.1035
  789SOL    HW2 2928   4.995   6.288   2.268  0.2851 -0.4188  0.1995
  789SOL    HW3 2929   5.045   6.147   2.247 -0.1943 -0.2943 -2.0023
  789SOL    MW4 2930   4.980   6.202   2.266  0.0253  0.4158  0.4456
  790SOL     OW 2931   4.814   2.812   3.574 -0.3876 -0.1786 -0.5348
  790SOL    HW2 2932   4.772   2.892   3.604  1.9651  1.1738 -0.5653
  790SOL    HW3 2933   4.745   2.745   3.576 -2.7756  2.0862 -1.7214
  790SOL    MW4 2934   4.799   2.814   3.578 -0.2834  0.5851  0.0809
  791SOL     OW 2935   4.519   4.875   4.352  0.0654 -0.0712  0.1673
  791SOL    HW2 2936   4.502   4.953   4.299 -1.0509 -1.5769 -1.8064
  791SOL    HW3 2937   4.492   4.900   4.440 -0.2567  1.7523 -0.4053
  791SOL    MW4 2938   4.514   4.889   4.357  0.3948 -0.2787  0.4175
  792SOL     OW 2939   4.535   3.463   0.993  0.1630 -0.0229  0.2456
  792SOL    HW2 2940   4.526   3.422   0.906  0.3826  0.1167  0.1557
  792SOL    HW3 2941   4.456   3.437   1.040 -0.1138  0.1801 -0.1091
  792SOL    MW4 2942   4.523   3.454   0.988  0.2561 -0.0186 -0.0497
  793SOL     OW 2943   5.806   2.392   2.286 -0.5106 -0.2164  0.1829
  793SOL    HW2 2944   5.890   2.374   2.329 -1.6114 -0.8463  2.1537
  793SOL    HW3 2945   5.803   2.487   2.279  0.4223 -0.1933 -0.0327
  793SOL    MW4 2946   5.817   2.402   2.291  0.0898  0.7991  0.5069
  794SOL     OW 2947   6.054   2.879   6.359  0.0076  0.5900  0.7391
  794SOL    HW2 2948   6.046   2.796   6.312 -0.4434  0.9588  0.1572
  794SOL    HW3 2949   6.050   2.855   6.452 -2.4942  0.1617  0.5840
  794SOL    MW4 2950   6.053   2.865   6.365  0.4964 -0.9563 -0.5401
  795SOL     OW 2951   5.473   1.332   5.635  0.1590  0.0160 -0.3716
  795SOL    HW2 2952   5.466   1.263   5.702  0.9212 -1.2404 -1.5414
  795SOL    HW3 2953   5.539   1.392   5.670 -1.1756  0.6970  1.0870
  795SOL    MW4 2954   5.481   1.331   5.649 -0.2639 -0.3103  0.1821
  796SOL     OW 2955   0.859   4.840   6.386 -0.2684 -0.5323  0.2821
  796SOL    HW2 2956   0.817   4.759   6.358  1.4836 -1.0176 -1.0492
  796SOL    HW3 2957   0.841   4.902   6.315 -0.1247 -0.2599  0.4827
  796SOL    MW4 2958   0.851   4.838   6.373  0.2468 -0.1736 -0.4754
  797SOL     OW 2959   6.038   2.794   0.203 -0.1959 -0.3321 -0.3010
  797SOL    HW2 2960   6.040   2.701   0.226  0.6096 -0.3601 -0.4518
  797SOL    HW3 2961   5.960   2.828   0.247 -0.8682 -1.2080 -0.7644
  797SOL    MW4 2962   6.028   2.786   0.212  0.2791  0.2922  0.0751
  798SOL     OW 2963   4.178   1.907   4.356  0.1016  0.0660  0.0955
  798SOL    HW2 2964   4.137   1.934   4.439 -0.2636  1.6651 -0.5567
  798SOL    HW3 2965   4.272   1.922   4.370  0.1967 -1.0258  0.6860
  798SOL    MW4 2966   4.185   1.913   4.369 -0.1808 -0.3888 -0.4632
  799SOL     OW 2967   0.496   2.384   4.829 -0.0985  0.1304  0.6235
  799SOL    HW2 2968   0.473   2.299   4.867 -2.2586  0.5428  0.3535
  799SOL    HW3 2969   0.590   2.392   4.844  0.4102 -2.8208 -0.3922
  799SOL    MW4 2970   0.505   2.374   4.836  0.0963  0.0301 -1.2876
  800SOL     OW 2971   3.075   0.882   3.161  0.0475 -0.0612 -0.2062
  800SOL    HW2 2972   3.149   0.873   3.220  0.1708 -1.2098 -0.5119
  800SOL    HW3 2973   3.010   0.820   3.193 -0.9898  1.2253  0.3105
  800SOL    MW4 2974   3.076   0.873   3.173 -0.5232  0.2612 -0.0897
  801SOL     OW 2975   1.189   5.071   0.546  0.0609  0.3072  0.7381
  801SOL    HW2 2976   1.170   5.021   0.466  2.6794 -0.8221  0.7011
  801SOL    HW3 2977   1.111   5.061   0.600 -2.4813  2.3843 -2.1623
  801SOL    MW4 2978   1.176   5.063   0.542 -0.2446  0.6426  0.5229
  802SOL     OW 2979   2.654   6.167   3.855  0.4954 -0.3902 -0.0229
  802SOL    HW2 2980   2.609   6.086   3.832 -1.2354  1.0441 -1.9835
  802SOL    HW3 2981   2.701   6.192   3.775 -1.5405  2.0838 -0.5843
  802SOL    MW4 2982   2.654   6.159   3.841  0.5327 -0.1505 -0.4609
  803SOL     OW 2983   5.996   3.511   1.932 -0.4813  0.1075 -0.5083
  803SOL    HW2 2984   6.090   3.527   1.945  0.5149 -3.5059 -1.9222
  803SOL    HW3 2985   5.966   3.474   2.015 -0.1173 -0.5386 -0.6527
  803SOL    MW4 2986   6.005   3.508   1.944 -0.0783  0.3352 -0.1322
  804SOL     OW 2987   3.170   4.172   2.724 -0.1744 -0.3135  0.0869
  804SOL    HW2 2988   3.182   4.267   2.722  0.5840 -0.3926  0.5220
  804SOL    HW3 2989   3.101   4.157   2.788 -1.1595  0.0128 -0.8611
  804SOL    MW4 2990   3.162   4.183   2.732 -0.4967 -0.6566  0.7695
  805SOL     OW 2991   5.714   0.316   1.013  0.1411  0.3720  0.2990
  805SOL    HW2 2992   5.720   0.387   1.078  1.1403  0.3532  0.2543
  805SOL    HW3 2993   5.621   0.305   0.998 -0.0969  0.6089  1.4841
  805SOL    MW4 2994   5.703   0.324   1.020 -0.5613 -0.1689  0.0173
  806SOL     OW 2995   4.719   2.013   2.901  0.1989 -0.1781 -0.6930
  806SOL    HW2 2996   4.810   2.040   2.890  0.6247 -1.2687  0.0206
  806SOL    HW3 2997   4.676   2.042   2.820  0.6497  2.3463 -0.1098
  806SOL    MW4 2998   4.725   2.021   2.889  0.4057  0.0439 -0.0302
  807SOL     OW 2999   6.399   2.567   1.725  0.3436 -0.1811 -0.1387
  807SOL    HW2 3000   6.460   2.493   1.728  1.0240  0.3165 -1.0557
  807SOL    HW3 3001   6.407   2.609   1.810 -0.3877 -1.4063  0.5651
  807SOL    MW4 3002   6.408   2.563   1.736 -0.3563  0.7117  0.3760
  808SOL     OW 3003   0.018   5.462   2.922  0.6076  0.3133  0.0972
  808SOL    HW2 3004   0.109   5.474   2.947  1.4024 -1.2169 -1.8636
  808SOL    HW3 3005   0.001   5.369   2.939 -0.2124  0.3138 -0.6632
  808SOL    MW4 3006   0.028   5.451   2.928 -0.2515  0.3699 -0.4104
  809SOL     OW 3007   3.287   3.002   3.396  1.0849  0.0608 -0.2852
  809SOL    HW2 3008   3.231   2.985   3.321 -0.0358  0.5024  0.4342
  809SOL    HW3 3009   3.324   3.089   3.379  0.7626  0.1984 -0.2771
  809SOL    MW4 3010   3.285   3.012   3.384  0.1665  0.1663 -0.4667
  810SOL     OW 3011   3.258   0.293   4.273 -0.7526  0.2103  0.6296
  810SOL    HW2 3012   3.331   0.306   4.212  1.1219 -3.3750  1.8592
  810SOL    HW3 3013   3.247   0.379   4.314 -0.0025  1.9226 -2.4356
  810SOL    MW4 3014   3.266   0.306   4.270 -0.1716 -0.8863 -0.0860
  811SOL     OW 3015   2.733   0.694   5.829  0.0589  0.0254 -0.7324
  811SOL    HW2 3016   2.689   0.769   5.788  1.3288 -0.5543 -3.3954
  811SOL    HW3 3017   2.687   0.618   5.794  0.8495 -0.4908 -0.6728
  811SOL    MW4 3018   2.721   0.694   5.819  0.1507 -0.1702 -0.1805
  812SOL     OW 3019   5.683   3.050   3.254  0.0184 -0.0969  0.0586
  812SOL    HW2 3020   5.717   3.129   3.295  1.5003 -1.0017  0.6288
  812SOL    HW3 3021   5.667   3.075   3.163  0.0827  0.9567  0.3303
  812SOL    MW4 3022   5.685   3.064   3.247 -0.2212 -0.7634 -0.5337
  813SOL     OW 3023   6.395   3.139   0.836  0.4664  0.0835 -0.0536
  813SOL    HW2 3024   6.360   3.110   0.752 -2.3737  0.4766  0.8540
  813SOL    HW3 3025   6.431   3.059   0.876 -2.8622 -1.3717  0.4112
  813SOL    MW4 3026   6.395   3.124   0.830  0.2659 -0.3701  0.0539
  814SOL     OW 3027   3.187   1.246   0.980 -0.6791  0.6824  0.6402
  814SOL    HW2 3028   3.109   1.280   1.023 -1.2555  0.4700 -0.2077
  814SOL    HW3 3029   3.192   1.296   0.898  0.1044  0.7216  0.6977
  814SOL    MW4 3030   3.177   1.257   0.975  0.0107  0.1690  0.4971
  815SOL     OW 3031   3.375   2.918   5.628 -0.1540 -0.2901  0.5779
  815SOL    HW2 3032   3.389   2.831   5.591  0.4617  0.4167 -0.9411
  815SOL    HW3 3033   3.325   2.965   5.561  1.2520  1.1379  0.4519
  815SOL    MW4 3034   3.370   2.913   5.614 -0.3177 -0.2559 -0.3898
  816SOL     OW 3035   0.481   6.071   5.254 -0.4897 -0.3011  1.1990
  816SOL    HW2 3036   0.497   6.131   5.327  0.6094 -0.1565  0.8632
  816SOL    HW3 3037   0.490   6.126   5.176  0.0011 -0.7790  0.9105
  816SOL    MW4 3038   0.485   6.086   5.254 -0.7728 -0.3107  0.2091
  817SOL     OW 3039   5.332   3.216   0.255 -0.2117 -0.7510  0.3014
  817SOL    HW2 3040   5.410   3.201   0.309  0.5594  1.7243  0.0157
  817SOL    HW3 3041   5.262   3.230   0.319  0.2710  0.1165  0.6712
  817SOL    MW4 3042   5.333   3.216   0.271 -0.0121 -0.2380  0.2545
  818SOL     OW 3043   5.449   0.105   0.324 -0.2444 -0.3873  0.3651
  818SOL    HW2 3044   5.447   0.171   0.255 -1.3885 -1.0670 -0.2826
  818SOL    HW3 3045   5.372   0.051   0.308 -1.3139  0.1979  2.9341
  818SOL    MW4 3046   5.439   0.107   0.313 -0.2838  0.4705  0.2205
  819SOL     OW 3047   6.344   4.109   0.423  0.2038 -0.0185  0.2369
  819SOL    HW2 3048   6.359   4.183   0.482 -0.8059 -1.5690  2.5976
  819SOL    HW3 3049   6.369   4.142   0.337  0.6026  2.7779  1.3016
  819SOL    MW4 3050   6.349   4.123   0.419  0.1455 -0.1656 -0.4243
  820SOL     OW 3051   0.110   0.774   3.355  0.1785 -0.5029 -0.2510
  820SOL    HW2 3052   0.163   0.706   3.314  0.7977  0.4902 -1.1717
  820SOL    HW3 3053   0.028   0.774   3.304 -0.7815 -2.0881  1.2196
  820SOL    MW4 3054   0.106   0.765   3.343 -0.1907  0.1739  0.0857
  821SOL     OW 3055   0.411   5.093   6.115 -0.5346  0.2914  0.0449
  821SOL    HW2 3056   0.437   5.168   6.168  1.3288  0.7882 -1.4555
  821SOL    HW3 3057   0.339   5.125   6.061 -2.0734 -0.0639  1.7863
  821SOL    MW4 3058   0.405   5.107   6.115 -0.3187 -0.7545  0.0163
  822SOL     OW 3059   5.255   3.449   6.203 -0.4891 -0.0456 -0.1282
  822SOL    HW2 3060   5.314   3.489   6.139  0.3442  1.8228  1.6929
  822SOL    HW3 3061   5.246   3.358   6.174  0.6081  0.4801 -2.3202
  822SOL    MW4 3062   5.262   3.442   6.191 -0.0229 -0.3076  0.0753
  823SOL     OW 3063   0.537   2.139   0.539 -0.0239 -0.0564  0.4167
  823SOL    HW2 3064   0.504   2.223   0.506  1.2725  0.7463  1.1001
  823SOL    HW3 3065   0.595   2.107   0.471 -2.5208 -1.7993 -1.0928
  823SOL    MW4 3066   0.540   2.146   0.526 -0.5588  0.4784 -0.3794
  824SOL     OW 3067   4.017   4.778   0.819  0.1335 -0.0993 -0.3913
  824SOL    HW2 3068   3.929   4.811   0.801 -0.3291 -1.4168 -0.6900
  824SOL    HW3 3069   4.070   4.810   0.746 -0.6962 -1.4623 -1.6538
  824SOL    MW4 3070   4.012   4.787   0.807  0.6155 -0.5507 -0.1326
  825SOL     OW 3071   2.393   2.095   5.437  0.6280 -0.4238  0.7018
  825SOL    HW2 3072   2.406   2.177   5.389  1.6484 -0.2060  1.3248
  825SOL    HW3 3073   2.476   2.049   5.429  0.5252 -0.7657  1.5299
  825SOL    MW4 3074   2.406   2.100   5.430 -0.0666 -0.3314  0.6368
  826SOL     OW 3075   0.348   6.389   5.276 -0.0758 -0.4877  0.1867
  826SOL    HW2 3076   0.350   6.428   5.363  0.0357 -0.2421  0.0744
  826SOL    HW3 3077   0.281   6.439   5.229  1.1416  0.6105 -0.4439
  826SOL    MW4 3078   0.339   6.401   5.281 -0.9640  0.5034  0.4855
  827SOL     OW 3079   2.643   2.276   5.289  0.0003  0.1881 -0.6727
  827SOL    HW2 3080   2.706   2.211   5.321 -0.6555  0.5750  1.5962
  827SOL    HW3 3081   2.694   2.331   5.229  0.7803 -1.8604 -2.0255
  827SOL    MW4 3082   2.658   2.274   5.285 -0.3415 -0.2662 -0.1742
  828SOL     OW 3083   0.411   2.414   1.761  0.1067  0.2887  0.1769
  828SOL    HW2 3084   0.381   2.450   1.678  1.4241  1.7909  0.3125
  828SOL    HW3 3085   0.364   2.331   1.769 -1.2479  0.8503 -1.2925
  828SOL    MW4 3086   0.401   2.408   1.751 -0.1604 -0.4169  0.6036
  829SOL     OW 3087   6.417   0.302   1.653  0.1940  0.3053 -0.1342
  829SOL    HW2 3088   6.388   0.229   1.598  0.2311 -0.9654  1.4299
  829SOL    HW3 3089   6.384   0.279   1.740  2.6527  0.7044  0.9685
  829SOL    MW4 3090   6.409   0.289   1.657 -0.6372 -0.0027  0.8283
  830SOL     OW 3091   4.448   3.785   3.467  0.4233 -0.1081  0.1392
  830SOL    HW2 3092   4.461   3.748   3.555  0.7904 -1.1126 -0.3246
  830SOL    HW3 3093   4.416   3.711   3.415 -1.5584  0.8863 -0.1643
  830SOL    MW4 3094   4.445   3.771   3.472  0.1514 -1.3091  0.0554
  831SOL     OW 3095   3.944   2.552   4.448 -0.1193  0.3120  0.1243
  831SOL    HW2 3096   3.949   2.505   4.531 -0.7217  0.6707  0.3704
  831SOL    HW3 3097   3.941   2.644   4.473  0.7631  0.4841 -0.3417
  831SOL    MW4 3098   3.944   2.558   4.462 -0.2833  0.3343  0.0060
  832SOL     OW 3099   3.916   1.482   0.834 -0.2639  0.1448  0.3805
  832SOL    HW2 3100   3.992   1.428   0.854 -1.5700 -2.1996 -0.5840
  832SOL    HW3 3101   3.905   1.473   0.739 -1.2466  1.1264  0.3802
  832SOL    MW4 3102   3.924   1.474   0.824 -0.3116 -0.1578  0.1215
  833SOL     OW 3103   0.776   2.653   1.598 -0.1658 -0.1601 -0.7259
  833SOL    HW2 3104   0.762   2.608   1.681  0.2159  1.2794  0.1390
  833SOL    HW3 3105   0.698   2.706   1.585 -0.8213 -1.3571 -1.9770
  833SOL    MW4 3106   0.764   2.654   1.607 -0.1509  0.3104  0.2269
  834SOL     OW 3107   4.031   2.363   3.115 -0.5866 -0.4276  0.1976
  834SOL    HW2 3108   4.040   2.356   3.210  0.6094 -0.2216  0.1192
  834SOL    HW3 3109   3.956   2.308   3.094  0.0527 -1.7167  1.1125
  834SOL    MW4 3110   4.023   2.355   3.125  0.4004 -0.2326  0.0682
  835SOL     OW 3111   0.329   2.083   3.673  0.1115  0.4779  0.2697
  835SOL    HW2 3112   0.250   2.065   3.622 -0.1567 -0.5487  1.0401
  835SOL    HW3 3113   0.336   2.011   3.735  1.0120  1.1681  1.0065
  835SOL    MW4 3114   0.320   2.071   3.674 -0.1636  0.2893  0.5134
  836SOL     OW 3115   2.247   0.267   1.747 -0.2611  0.2022 -0.2928
  836SOL    HW2 3116   2.214   0.252   1.658 -1.6101 -2.4415  0.5151
  836SOL    HW3 3117   2.329   0.217   1.751  1.8066  3.2944 -1.0238
  836SOL    MW4 3118   2.253   0.258   1.736 -0.0620 -0.2903 -0.6680
  837SOL     OW 3119   5.938   1.454   2.974 -0.0299  0.3769 -0.1675
  837SOL    HW2 3120   5.910   1.542   2.999 -1.1622 -0.3622  1.2983
  837SOL    HW3 3121   5.936   1.454   2.878 -0.6060  1.7615 -0.1695
  837SOL    MW4 3122   5.934   1.465   2.964  0.0650  0.1332 -0.5465
  838SOL     OW 3123   4.786   0.948   5.607 -0.1100 -0.0451 -0.0851
  838SOL    HW2 3124   4.819   0.971   5.694 -3.0734 -0.2188  1.2147
  838SOL    HW3 3125   4.740   1.027   5.578 -2.8766 -1.2757  0.5546
  838SOL    MW4 3126   4.784   0.962   5.615  0.9193  0.5069  0.4961
  839SOL     OW 3127   0.099   1.590   2.010  0.0389 -0.2915 -0.3224
  839SOL    HW2 3128   0.164   1.660   2.017 -0.5753  0.1164  1.5783
  839SOL    HW3 3129   0.140   1.515   2.053  0.4787 -1.0159 -1.8927
  839SOL    MW4 3130   0.113   1.590   2.016  0.1567  0.2543 -0.0337
  840SOL     OW 3131   0.084   1.428   4.589 -0.4049  0.0471 -0.3982
  840SOL    HW2 3132   0.126   1.514   4.599  1.3193 -0.6833 -0.9475
  840SOL    HW3 3133   0.097   1.385   4.674  0.3406 -0.3237 -0.6901
  840SOL    MW4 3134   0.091   1.434   4.602  0.0928  0.3149  0.3242
  841SOL     OW 3135   2.504   6.342   0.946 -0.2709  0.4276  0.2835
  841SOL    HW2 3136   2.475   6.408   1.009 -1.3484 -0.2110  0.4934
  841SOL    HW3 3137   2.597   6.357   0.936 -0.3951  1.6074  0.7683
  841SOL    MW4 3138   2.512   6.352   0.953 -0.1131  0.2764 -0.0759
  842SOL     OW 3139   1.054   5.004   1.092 -0.1727  0.4322 -0.0313
  842SOL    HW2 3140   0.961   5.025   1.083 -1.2192 -2.7420  1.8958
  842SOL    HW3 3141   1.071   5.009   1.186  1.1372 -0.7017 -0.1716
  842SOL    MW4 3142   1.044   5.007   1.103 -0.3554 -0.2437  0.5923
  843SOL     OW 3143   1.410   0.190   3.684  0.4999  0.5479 -0.6318
  843SOL    HW2 3144   1.393   0.280   3.656 -0.2326  1.8077  3.2016
  843SOL    HW3 3145   1.323   0.151   3.693  0.3549  1.3003  2.5813
  843SOL    MW4 3146   1.396   0.196   3.682  0.1699  0.0869 -0.1321
  844SOL     OW 3147   0.243   5.607   3.006  0.4151 -0.7962 -0.4452
  844SOL    HW2 3148   0.334   5.581   2.992  1.3723  1.8414  0.2748
  844SOL    HW3 3149   0.230   5.680   2.946 -1.1515 -0.9288 -0.3045
  844SOL    MW4 3150   0.253   5.613   2.996  0.0110  0.9063 -0.4180
  845SOL     OW 3151   2.398   0.635   3.095  0.1958  0.2070  0.2723
  845SOL    HW2 3152   2.493   0.635   3.098  0.2170  1.0343 -0.1165
  845SOL    HW3 3153   2.375   0.721   3.062 -0.6074 -0.7361 -1.8199
  845SOL    MW4 3154   2.407   0.646   3.091  0.0641 -0.0233  0.1509
  846SOL     OW 3155   5.553   3.899   3.090  0.1698 -0.3367  0.4683
  846SOL    HW2 3156   5.504   3.976   3.062 -0.1879 -1.0260 -0.8586
  846SOL    HW3 3157   5.610   3.931   3.161 -0.0798  1.0941  0.0492
  846SOL    MW4 3158   5.554   3.913   3.096 -0.4417 -0.3269  0.1513
  847SOL     OW 3159   5.261   5.389   5.536  0.4618 -0.7929  0.0561
  847SOL    HW2 3160   5.322   5.430   5.597  0.3965 -0.4489 -0.1061
  847SOL    HW3 3161   5.221   5.463   5.489 -1.0614 -0.9049  1.0905
  847SOL    MW4 3162   5.264   5.404   5.538  0.2807 -0.2057 -0.4452
  848SOL     OW 3163   2.368   2.013   1.703 -0.1567  0.2609  0.0055
  848SOL    HW2 3164   2.324   2.096   1.686 -2.1931 -0.5803  0.8671
  848SOL    HW3 3165   2.312   1.968   1.766 -1.0848 -3.2667 -2.9898
  848SOL    MW4 3166   2.355   2.018   1.709  0.0006 -0.3734  0.4589
  849SOL     OW 3167   6.119   2.259   3.714 -0.0986 -0.0305 -0.5274
  849SOL    HW2 3168   6.067   2.255   3.634 -0.2146  0.0702 -0.4567
  849SOL    HW3 3169   6.205   2.226   3.688 -0.4558 -1.0933 -0.4374
  849SOL    MW4 3170   6.123   2.254   3.700  0.1550  0.4759 -0.3360
  850SOL     OW 3171   5.268   0.916   1.200  0.3041  0.0174  0.0495
  850SOL    HW2 3172   5.188   0.965   1.185  1.7680  2.9680  1.1454
  850SOL    HW3 3173   5.338   0.975   1.172  2.1541 -2.0142  0.1479
  850SOL    MW4 3174   5.267   0.930   1.194  0.2632 -0.6074 -0.5255
  851SOL     OW 3175   4.674   0.961   6.050 -0.0685  0.3137 -0.2800
  851SOL    HW2 3176   4.630   0.883   6.017 -0.8017  0.5541  0.0892
  851SOL    HW3 3177   4.607   1.006   6.102  0.5990  0.7297  0.2475
  851SOL    MW4 3178   4.659   0.956   6.053  0.0115 -0.1194 -0.4959
  852SOL     OW 3179   1.150   3.909   5.767  0.4909 -0.3197 -0.2500
  852SOL    HW2 3180   1.131   3.859   5.846  0.1947 -1.2495 -0.8900
  852SOL    HW3 3181   1.153   3.843   5.697  0.6505  0.4917 -1.0264
  852SOL    MW4 3182   1.148   3.893   5.768 -0.0673  0.3324 -0.4618
  853SOL     OW 3183   4.337   4.617   0.803  0.1523  0.8259  0.2536
  853SOL    HW2 3184   4.330   4.646   0.894 -0.5084 -0.1699  0.5375
  853SOL    HW3 3185   4.416   4.562   0.802  0.3973  1.1767  0.1244
  853SOL    MW4 3186   4.347   4.613   0.815 -0.3465  0.1115 -0.4539
  854SOL     OW 3187   3.566   3.454   4.450 -0.3557  0.1997 -0.6255
  854SOL    HW2 3188   3.610   3.370   4.435  0.4784  0.6690 -0.8682
  854SOL    HW3 3189   3.489   3.451   4.394 -2.0936 -1.6751  1.6346
  854SOL    MW4 3190   3.562   3.443   4.441 -0.2340 -0.5587  0.3024
  855SOL     OW 3191   3.749   1.188   4.766 -0.2217  0.2879 -0.0805
  855SOL    HW2 3192   3.784   1.257   4.709 -1.6147  0.5623 -0.6421
  855SOL    HW3 3193   3.813   1.181   4.836 -0.0229  2.1432 -0.0217
  855SOL    MW4 3194   3.762   1.196   4.767 -0.4433  0.5718  0.0384
  856SOL     OW 3195   3.713   5.163   2.754  0.4455 -0.7364 -0.1518
  856SOL    HW2 3196   3.730   5.115   2.835 -1.5324 -1.2069  0.0524
  856SOL    HW3 3197   3.684   5.250   2.784 -1.5958 -1.3329 -0.2204
  856SOL    MW4 3198   3.711   5.168   2.769 -0.2274 -0.1522  0.0161
  857SOL     OW 3199   1.005   3.675   3.086 -0.1882 -0.3110 -0.4659
  857SOL    HW2 3200   0.937   3.669   3.153 -0.4471 -0.2607 -0.7217
  857SOL    HW3 3201   0.983   3.754   3.037  0.3195 -0.0428 -0.2635
  857SOL    MW4 3202   0.993   3.685   3.088 -0.3975 -0.2673 -0.1826
  858SOL     OW 3203   1.367   4.241   2.981 -0.3059 -0.1142  0.3744
  858SOL    HW2 3204   1.413   4.304   2.926 -0.5672 -0.5728 -0.3946
  858SOL    HW3 3205   1.303   4.201   2.922 -3.1147  1.8903  1.8599
  858SOL    MW4 3206   1.365   4.244   2.966  0.1869 -0.0665  0.3884
  859SOL     OW 3207   6.100   5.220   1.631  0.4367  0.3809 -0.2755
  859SOL    HW2 3208   6.072   5.137   1.669  0.7608  0.4755  0.1707
  859SOL    HW3 3209   6.154   5.195   1.556  0.4374  0.1934 -0.2112
  859SOL    MW4 3210   6.103   5.206   1.626 -0.1072 -0.1261  0.0097
  860SOL     OW 3211   3.093   4.770   3.783  0.3889  0.2809  0.3826
  860SOL    HW2 3212   3.059   4.803   3.700 -1.5146 -0.3955  0.8379
  860SOL    HW3 3213   3.080   4.675   3.778  1.5867  0.0770  0.8887
  860SOL    MW4 3214   3.087   4.762   3.772  0.4319  1.1771 -0.0597
  861SOL     OW 3215   2.947   2.864   0.346  0.2155 -0.2568 -0.3687
  861SOL    HW2 3216   2.885   2.894   0.413 -0.3520 -0.2855 -0.8760
  861SOL    HW3 3217   3.033   2.870   0.389 -0.0974  0.1172  0.2237
  861SOL    MW4 3218   2.950   2.869   0.361  0.6415 -0.6021  0.0379
  862SOL     OW 3219   1.695   2.748   2.535  0.0089 -0.0223  0.6783
  862SOL    HW2 3220   1.698   2.784   2.624  0.7394  1.0377  0.2500
  862SOL    HW3 3221   1.754   2.673   2.537  1.9713  1.4118  0.5354
  862SOL    MW4 3222   1.703   2.743   2.547 -0.0039  0.0393  0.2484
  863SOL     OW 3223   2.505   4.807   3.481 -0.1056  0.2387  0.3273
  863SOL    HW2 3224   2.523   4.845   3.396  0.8364  0.7837  0.7634
  863SOL    HW3 3225   2.412   4.826   3.497 -0.8388 -1.4935 -1.3711
  863SOL    MW4 3226   2.495   4.814   3.472  0.5223  0.2550  0.2262
  864SOL     OW 3227   5.671   4.599   2.158 -0.4724  0.4859 -0.2545
  864SOL    HW2 3228   5.622   4.676   2.187  1.4824  1.5695  0.3843
  864SOL    HW3 3229   5.693   4.553   2.239 -1.2979 -0.5792 -0.6084
  864SOL    MW4 3230   5.667   4.604   2.172 -0.0896 -0.0534  0.6323
  865SOL     OW 3231   2.342   5.297   1.475  0.3258  0.1500  0.0143
  865SOL    HW2 3232   2.401   5.260   1.540 -2.3690 -1.8109  1.5744
  865SOL    HW3 3233   2.313   5.222   1.423 -0.8104  1.0055 -0.6492
  865SOL    MW4 3234   2.346   5.282   1.476 -0.1086  0.0472  0.2295
  866SOL     OW 3235   3.784   2.668   1.790  0.2936 -0.2138 -0.1109
  866SOL    HW2 3236   3.843   2.597   1.816 -0.4497 -0.7416  0.1657
  866SOL    HW3 3237   3.776   2.659   1.695  0.3953 -0.3497 -0.1073
  866SOL    MW4 3238   3.790   2.657   1.781  0.3028  0.6609 -0.6753
  867SOL     OW 3239   2.330   3.136   0.870 -0.0644 -1.0852  0.4942
  867SOL    HW2 3240   2.360   3.181   0.790  0.8218  0.1355  1.4758
  867SOL    HW3 3241   2.275   3.200   0.914 -1.5725 -2.1893  0.3001
  867SOL    MW4 3242   2.327   3.150   0.865 -0.3397  0.7421  0.2729
  868SOL     OW 3243   6.063   2.826   2.362  0.4020 -0.2469 -0.1226
  868SOL    HW2 3244   6.090   2.776   2.440 -1.8767  0.5291  1.2372
  868SOL    HW3 3245   6.050   2.915   2.394 -0.4133  0.1281 -1.4424
  868SOL    MW4 3246   6.065   2.831   2.376  0.1190  0.1837 -0.2554
  869SOL     OW 3247   1.868   3.012   3.416  0.0788 -0.4253 -0.1469
  869SOL    HW2 3248   1.870   3.019   3.511 -0.4215 -0.3358 -0.1404
  869SOL    HW3 3249   1.779   2.982   3.396  0.1453 -0.3315 -0.5906
  869SOL    MW4 3250   1.857   3.009   3.426  0.0831  0.8876  0.1953
  870SOL     OW 3251   6.343   0.647   1.591  0.0795 -0.6013 -0.1130
  870SOL    HW2 3252   6.393   0.604   1.521  0.6237 -1.1368  0.5871
  870SOL    HW3 3253   6.315   0.575   1.648  1.3737 -0.0384  1.3153
  870SOL    MW4 3254   6.346   0.632   1.589 -0.7150  0.2260  0.0227
  871SOL     OW 3255   2.622   6.032   5.111 -1.1272  0.2535  0.2188
  871SOL    HW2 3256   2.588   5.943   5.124  1.5404 -0.8801  0.0646
  871SOL    HW3 3257   2.548   6.089   5.131 -3.0198 -1.9914  0.0424
  871SOL    MW4 3258   2.608   6.028   5.115  0.3179  0.4547 -0.3095
  872SOL     OW 3259   5.117   0.969   3.411 -0.4721 -0.1656 -0.0873
  872SOL    HW2 3260   5.127   0.978   3.506 -0.4358 -0.6524 -0.0406
  872SOL    HW3 3261   5.144   1.054   3.376 -1.1632  0.2597  0.3825
  872SOL    MW4 3262   5.122   0.981   3.419  0.6142  0.3512 -0.5276
  873SOL     OW 3263   1.749   1.335   1.416 -0.2555  0.2389 -0.3873
  873SOL    HW2 3264   1.743   1.295   1.329 -0.6003  0.6819 -0.5784
  873SOL    HW3 3265   1.674   1.396   1.418  0.9785  1.8467 -0.6255
  873SOL    MW4 3266   1.738   1.338   1.404 -0.2956 -0.0874 -0.0061
  874SOL     OW 3267   1.279   0.317   2.328 -0.4946 -0.0296 -0.1282
  874SOL    HW2 3268   1.356   0.282   2.373  0.7482  1.0445 -1.3052
  874SOL    HW3 3269   1.311   0.339   2.240 -2.3229 -0.1761 -0.8785
  874SOL    MW4 3270   1.293   0.315   2.322 -0.3086  0.2405 -0.1865
  875SOL     OW 3271   5.242   1.203   4.448 -0.0462 -0.1998  0.1570
  875SOL    HW2 3272   5.189   1.263   4.501  0.0256  0.4306 -0.4696
  875SOL    HW3 3273   5.327   1.247   4.440  0.0478 -0.4443 -0.2025
  875SOL    MW4 3274   5.246   1.217   4.454  0.4111 -0.5101 -0.1786
  876SOL     OW 3275   2.798   4.012   6.394 -0.0890 -0.3764  0.1145
  876SOL    HW2 3276   2.880   4.046   6.430  1.5686 -0.3351 -3.3029
  876SOL    HW3 3277   2.750   4.090   6.365 -0.7835 -0.4861  0.9097
  876SOL    MW4 3278   2.802   4.027   6.395  0.4366 -0.1039  0.5160
  877SOL     OW 3279   3.502   2.352   0.726  0.1316  0.6264  0.0548
  877SOL    HW2 3280   3.511   2.267   0.769 -0.3176  0.4282 -0.2334
  877SOL    HW3 3281   3.484   2.330   0.634  0.1070  1.0326 -0.0376
  877SOL    MW4 3282   3.501   2.338   0.719  0.1459  0.4465 -0.1248
  878SOL     OW 3283   5.325   1.245   5.028 -0.2470  0.4830 -0.5938
  878SOL    HW2 3284   5.333   1.164   5.078 -0.3480  0.6687 -0.2689
  878SOL    HW3 3285   5.379   1.231   4.951  1.1277  0.7344  0.2822
  878SOL    MW4 3286   5.334   1.233   5.025 -0.4071  0.3629  0.1097
  879SOL     OW 3287   0.616   3.573   1.690 -0.9920 -0.1851 -0.1099
  879SOL    HW2 3288   0.532   3.536   1.665 -1.0421 -0.1739  0.0414
  879SOL    HW3 3289   0.598   3.625   1.768 -0.7310 -0.6966  0.2998
  879SOL    MW4 3290   0.603   3.575   1.697  0.5634  0.1620 -0.0963
  880SOL     OW 3291   5.081   0.059   2.162 -0.1836  0.6314 -0.0007
  880SOL    HW2 3292   5.142   0.013   2.220 -0.2496  0.5687  0.0189
  880SOL    HW3 3293   5.124   0.058   2.076 -1.2758 -1.6304 -0.5788
  880SOL    MW4 3294   5.095   0.053   2.158 -0.0629  0.2706  0.3536
  881SOL     OW 3295   2.310   2.512   1.612 -0.2455  0.0072 -0.4412
  881SOL    HW2 3296   2.339   2.583   1.670 -0.7080  0.2002 -0.4440
  881SOL    HW3 3297   2.252   2.459   1.666  0.7349 -0.8554 -0.1859
  881SOL    MW4 3298   2.306   2.514   1.627  0.2939 -0.4085  0.7942
  882SOL     OW 3299   0.460   4.411   0.560 -0.0229 -0.7557 -0.4030
  882SOL    HW2 3300   0.428   4.331   0.601  1.7856 -0.7071  1.2683
  882SOL    HW3 3301   0.503   4.459   0.631 -0.3152  1.3110 -1.5373
  882SOL    MW4 3302   0.462   4.407   0.575  0.3567  0.2615 -0.0711
  883SOL     OW 3303   5.629   5.462   1.589 -0.2236 -0.4853 -0.6906
  883SOL    HW2 3304   5.697   5.529   1.584  0.6876 -1.2913  0.4156
  883SOL    HW3 3305   5.579   5.472   1.508  0.5679  0.8055 -1.0388
  883SOL    MW4 3306   5.631   5.472   1.578  0.1831 -0.3094  0.4440
  884SOL     OW 3307   1.069   4.111   0.433  0.2048 -0.1172 -0.4913
  884SOL    HW2 3308   1.127   4.107   0.510 -0.3413 -2.8747 -0.1324
  884SOL    HW3 3309   1.127   4.097   0.359  0.4374  0.4999 -0.4359
  884SOL    MW4 3310   1.084   4.109   0.433  0.0227 -0.0512 -0.3784
  885SOL     OW 3311   5.759   5.375   1.054 -0.3509 -0.0937 -0.8562
  885SOL    HW2 3312   5.828   5.437   1.028  0.2171  0.1893  1.1599
  885SOL    HW3 3313   5.767   5.369   1.149 -1.9484 -1.4735 -0.7680
  885SOL    MW4 3314   5.769   5.382   1.063  0.1678 -0.2745 -0.1012
  886SOL     OW 3315   0.559   1.501   0.219 -0.0625  0.1563 -0.2157
  886SOL    HW2 3316   0.593   1.527   0.304 -0.5921 -0.7433  0.2805
  886SOL    HW3 3317   0.633   1.460   0.175  0.4359  1.3206 -0.5257
  886SOL    MW4 3318   0.574   1.499   0.224 -0.0478 -0.2287  0.3529
  887SOL     OW 3319   2.759   6.294   3.627  0.2594 -0.5152  0.3562
  887SOL    HW2 3320   2.735   6.254   3.543 -1.1060  1.8071 -0.4500
  887SOL    HW3 3321   2.854   6.293   3.628  0.3086 -0.5201 -1.2819
  887SOL    MW4 3322   2.768   6.288   3.616 -1.0107  0.1618 -0.2231
  888SOL     OW 3323   0.034   2.205   2.217  0.4700  0.2608  0.2789
  888SOL    HW2 3324   0.062   2.295   2.198  0.6847  0.3297  0.8896
  888SOL    HW3 3325  -0.006   2.211   2.304 -0.9509  0.0658 -0.3337
  888SOL    MW4 3326   0.032   2.218   2.226  0.0954 -0.4453  0.1011
  889SOL     OW 3327   5.916   3.064   5.377 -0.2802  0.0965  0.0285
  889SOL    HW2 3328   5.830   3.022   5.378  0.3674 -1.3207 -0.4425
  889SOL    HW3 3329   5.907   3.139   5.435 -1.6064 -0.4883  0.6222
  889SOL    MW4 3330   5.903   3.068   5.384  0.3678 -0.8347  0.0343
  890SOL     OW 3331   0.890   0.806   5.400 -0.0173 -0.2733 -0.6389
  890SOL    HW2 3332   0.872   0.772   5.488 -0.1833  0.4416 -0.3903
  890SOL    HW3 3333   0.914   0.729   5.349  3.5749 -0.3440  0.8765
  890SOL    MW4 3334   0.891   0.791   5.405 -0.3875  0.5694  0.3301
  891SOL     OW 3335   6.205   1.336   2.232 -0.1822  0.2198  0.1760
  891SOL    HW2 3336   6.155   1.361   2.309 -1.2092 -2.0863  0.3473
  891SOL    HW3 3337   6.282   1.289   2.266 -0.6575 -0.8411 -0.1556
  891SOL    MW4 3338   6.209   1.333   2.247  0.7388  0.8527 -0.1332
  892SOL     OW 3339   0.775   2.111   0.333 -0.5559 -0.4153 -0.6144
  892SOL    HW2 3340   0.742   2.076   0.250 -0.2639 -0.9699 -0.5013
  892SOL    HW3 3341   0.861   2.148   0.311 -0.8251  0.1618 -0.7159
  892SOL    MW4 3342   0.782   2.111   0.319 -0.4961  0.3708 -0.9513
  893SOL     OW 3343   5.598   5.308   0.550 -0.1778  0.2997  0.0364
  893SOL    HW2 3344   5.531   5.376   0.549  1.7271  2.3568  1.6789
  893SOL    HW3 3345   5.679   5.354   0.575  1.2022 -2.5832  1.4020
  893SOL    MW4 3346   5.600   5.323   0.553 -0.1689  0.4279 -0.0849
  894SOL     OW 3347   5.206   3.842   4.903  0.3115  0.1393 -0.0715
  894SOL    HW2 3348   5.238   3.806   4.820 -1.4430 -2.8777  0.3949
  894SOL    HW3 3349   5.233   3.778   4.969 -1.2176  0.6888  1.1549
  894SOL    MW4 3350   5.214   3.829   4.901  0.4188  0.5490 -0.2774
  895SOL     OW 3351   1.727   0.103   1.195  0.2472  0.4304 -0.0918
  895SOL    HW2 3352   1.734   0.093   1.100 -0.4371  3.1990 -0.5311
  895SOL    HW3 3353   1.634   0.093   1.214  0.4511 -0.6496  0.3831
  895SOL    MW4 3354   1.716   0.101   1.185  0.1568 -0.3596 -0.2954
  896SOL     OW 3355   5.161   1.250   1.382  0.5802 -0.5294 -0.2996
  896SOL    HW2 3356   5.228   1.311   1.352  0.1611 -0.9501 -2.2482
  896SOL    HW3 3357   5.085   1.305   1.403  1.0013 -0.1925  0.3735
  896SOL    MW4 3358   5.160   1.265   1.381 -0.4748  0.1597  0.1588
  897SOL     OW 3359   0.838   0.271   3.979  0.2878 -0.9118  0.0262
  897SOL    HW2 3360   0.889   0.213   3.923  1.7338 -0.0903  0.4418
  897SOL    HW3 3361   0.861   0.245   4.068  2.5891  1.5454  0.2724
  897SOL    MW4 3362   0.847   0.260   3.983  0.0870  0.0137 -0.0684
  898SOL     OW 3363   3.840   1.711   2.777  0.6675  0.1324  0.1859
  898SOL    HW2 3364   3.745   1.715   2.781  0.5935  1.2868 -1.7233
  898SOL    HW3 3365   3.859   1.626   2.736  0.3426  0.7095 -1.2253
  898SOL    MW4 3366   3.830   1.700   2.772 -0.3218 -0.2886  0.0702
  899SOL     OW 3367   0.109   0.414   5.866 -0.6401 -0.4653  0.3372
  899SOL    HW2 3368   0.036   0.353   5.860 -1.1473  0.2335 -0.9811
  899SOL    HW3 3369   0.069   0.500   5.862  0.1462 -0.0454  1.2377
  899SOL    MW4 3370   0.094   0.417   5.865 -0.9134  0.0849  0.0903
  900SOL     OW 3371   2.265   2.213   1.017 -0.6543 -0.1934 -0.4072
  900SOL    HW2 3372   2.238   2.198   1.108  1.9060  1.1954  0.6991
  900SOL    HW3 3373   2.208   2.284   0.987 -2.1106 -1.2476 -0.2215
  900SOL    MW4 3374   2.254   2.220   1.025 -0.1774 -0.0964  0.0610
  901SOL     OW 3375   4.857   4.546   1.375 -0.0299  0.5000  0.0178
  901SOL    HW2 3376   4.814   4.515   1.455  2.6184 -2.2499  0.5394
  901SOL    HW3 3377   4.785   4.563   1.314 -1.9761 -3.3713  0.9491
  901SOL    MW4 3378   4.842   4.544   1.378 -0.8227  0.0914  0.2565
  902SOL     OW 3379   1.906   2.156   1.904 -0.9661 -0.0613  0.2003
  902SOL    HW2 3380   1.855   2.235   1.919  1.4617  1.5545  0.5831
  902SOL    HW3 3381   1.938   2.132   1.991  0.8940  0.4783 -0.2746
  902SOL    MW4 3382   1.904   2.163   1.917 -0.0681 -0.3117  0.2679
  903SOL     OW 3383   6.239   3.704   0.258  0.2235 -0.4927 -0.1969
  903SOL    HW2 3384   6.310   3.724   0.196 -0.7358 -0.6311 -1.3805
  903SOL    HW3 3385   6.220   3.788   0.300  1.4790 -0.5767  0.5765
  903SOL    MW4 3386   6.246   3.718   0.255  0.3168 -0.1428 -0.2813
  904SOL     OW 3387   1.969   3.946   3.177  0.6866  0.5305  0.3429
  904SOL    HW2 3388   1.916   3.986   3.108 -1.6217  0.1024  1.7714
  904SOL    HW3 3389   1.943   3.991   3.257  3.2380  0.9606  1.0277
  904SOL    MW4 3390   1.959   3.957   3.178 -0.0563  0.4782 -0.6945
  905SOL     OW 3391   5.465   0.356   4.688  0.3790  0.0651  0.3792
  905SOL    HW2 3392   5.409   0.428   4.659  0.5906  0.1464  0.1649
  905SOL    HW3 3393   5.441   0.283   4.631  0.4396  0.0798  0.3346
  905SOL    MW4 3394   5.455   0.356   4.677  0.0105  0.0422  0.6850
  906SOL     OW 3395   0.308   5.259   4.206  0.5443 -0.0004  0.2303
  906SOL    HW2 3396   0.347   5.187   4.156 -1.8833 -1.6562  0.5415
  906SOL    HW3 3397   0.227   5.280   4.159 -0.2925  0.4607  1.7989
  906SOL    MW4 3398   0.303   5.252   4.193 -0.4828 -0.0167 -0.1731
  907SOL     OW 3399   2.935   0.051   1.897 -0.1556 -0.5020  0.0919
  907SOL    HW2 3400   3.016   0.003   1.917 -0.9406 -2.1290 -0.4765
  907SOL    HW3 3401   2.913   0.096   1.979  0.4878 -1.3064  0.7283
  907SOL    MW4 3402   2.943   0.051   1.910  0.0064 -0.1947 -0.0371
  908SOL     OW 3403   0.846   0.512   6.393  0.2684 -0.0486 -0.6619
  908SOL    HW2 3404   0.915   0.475   6.339  0.6362 -0.1105 -0.1519
  908SOL    HW3 3405   0.808   0.437   6.438  0.1937  0.0455 -0.5681
  908SOL    MW4 3406   0.850   0.497   6.392  0.0664  0.4170  0.1710
  909SOL     OW 3407   5.330   1.336   1.996  0.3291 -0.4649  0.5597
  909SOL    HW2 3408   5.393   1.388   1.945 -0.1801 -0.2282  0.1581
  909SOL    HW3 3409   5.334   1.374   2.084 -1.8390  1.9957 -0.2748
  909SOL    MW4 3410   5.339   1.348   2.001 -0.1006  1.1181  0.6235
  910SOL     OW 3411   0.911   1.159   2.028 -0.3705 -0.4429  0.1891
  910SOL    HW2 3412   0.824   1.125   2.048 -0.6434 -0.3204 -0.7473
  910SOL    HW3 3413   0.969   1.083   2.035 -0.9075 -1.0445 -1.4428
  910SOL    MW4 3414   0.907   1.144   2.032 -0.5208 -0.2890 -0.0563
  911SOL     OW 3415   1.193   2.771   1.993 -0.1815 -0.0757 -0.1039
  911SOL    HW2 3416   1.218   2.680   1.975  1.2136  0.4848 -1.1777
  911SOL    HW3 3417   1.108   2.781   1.948 -0.8992 -1.1322  0.9562
  911SOL    MW4 3418   1.185   2.760   1.984 -0.2330 -0.1979 -0.1370
  912SOL     OW 3419   0.891   0.062   2.839  0.1314  0.0229  0.7130
  912SOL    HW2 3420   0.914   0.097   2.925 -2.2660  0.0754  1.3930
  912SOL    HW3 3421   0.838   0.131   2.799  0.1277 -0.5375 -0.2632
  912SOL    MW4 3422   0.887   0.075   2.845 -0.0489 -0.0383 -0.4648
  913SOL     OW 3423   1.573   3.757   0.558  0.3582  0.0805  0.2273
  913SOL    HW2 3424   1.549   3.808   0.635  2.1553  0.9975  0.2415
  913SOL    HW3 3425   1.490   3.735   0.516 -0.8175 -2.1424  3.4204
  913SOL    MW4 3426   1.559   3.761   0.562  0.0959  0.2497  0.1142
  914SOL     OW 3427   4.483   5.735   0.043 -0.5606  0.3513  0.8294
  914SOL    HW2 3428   4.499   5.828   0.055 -0.1272  0.3497  0.2618
  914SOL    HW3 3429   4.447   5.728  -0.045  0.1724 -0.1126  0.5648
  914SOL    MW4 3430   4.480   5.746   0.033  0.0849 -0.0519  0.1615
  915SOL     OW 3431   5.834   4.321   4.281  0.2116  0.0059  0.5251
  915SOL    HW2 3432   5.883   4.342   4.201 -0.6457 -0.6694 -0.1954
  915SOL    HW3 3433   5.850   4.395   4.339 -1.8486  2.1714 -1.5185
  915SOL    MW4 3434   5.843   4.333   4.278  0.4527 -0.3884  0.1106
  916SOL     OW 3435   3.312   4.424   2.978 -0.3686 -0.0037  0.5058
  916SOL    HW2 3436   3.221   4.444   3.003 -0.0209  0.5232  1.4260
  916SOL    HW3 3437   3.325   4.471   2.895 -0.4138  1.4306  1.2665
  916SOL    MW4 3438   3.302   4.433   2.971 -0.0083 -0.4455  0.0567
  917SOL     OW 3439   6.380   2.378   3.085 -0.4044 -0.0571 -0.3296
  917SOL    HW2 3440   6.287   2.392   3.068 -0.7750 -0.8264  0.9249
  917SOL    HW3 3441   6.385   2.360   3.179  1.2466  1.9397  0.0430
  917SOL    MW4 3442   6.368   2.378   3.096 -0.3975 -0.0409 -0.3810
  918SOL     OW 3443   5.977   4.042   3.213  0.3049 -0.1962  0.5215
  918SOL    HW2 3444   6.033   3.970   3.185 -0.7756 -0.6617 -0.5132
  918SOL    HW3 3445   5.984   4.107   3.143  0.5959  0.3488  1.0408
  918SOL    MW4 3446   5.986   4.041   3.200  0.2345 -0.1504  0.3860
  919SOL     OW 3447   1.259   4.878   6.251 -0.2077  0.2255  0.0957
  919SOL    HW2 3448   1.274   4.804   6.193 -1.4028  1.0726 -1.3526
  919SOL    HW3 3449   1.190   4.929   6.209  0.2467  1.9224  1.2806
  919SOL    MW4 3450   1.252   4.875   6.238  0.5694  0.3219  0.3758
  920SOL     OW 3451   2.093   4.342   1.321 -0.0003 -0.2019 -0.0459
  920SOL    HW2 3452   2.104   4.372   1.411 -1.4218 -0.1782  0.1417
  920SOL    HW3 3453   2.084   4.247   1.329 -0.5752 -0.1584 -0.0948
  920SOL    MW4 3454   2.093   4.333   1.334  0.3387  0.5249  0.4648
  921SOL     OW 3455   1.250   6.126   0.146 -0.3928 -0.4337  0.2202
  921SOL    HW2 3456   1.207   6.134   0.231  1.2716 -0.5269  1.0967
  921SOL    HW3 3457   1.289   6.038   0.147  1.6762  0.4511  0.3610
  921SOL    MW4 3458   1.249   6.115   0.157 -0.4056  0.2651  0.0432
  922SOL     OW 3459   2.883   2.801   1.403  0.2429  0.5763  0.2882
  922SOL    HW2 3460   2.941   2.734   1.439 -0.1229  0.4959  0.7433
  922SOL    HW3 3461   2.879   2.868   1.470  1.0702  1.3499 -0.4073
  922SOL    MW4 3462   2.890   2.801   1.416 -0.2494 -0.1803 -0.3475
  923SOL     OW 3463   1.367   3.437   5.390  0.2296 -0.1646 -0.1874
  923SOL    HW2 3464   1.462   3.425   5.380  0.2864 -0.7449  0.9187
  923SOL    HW3 3465   1.355   3.454   5.483 -0.8778 -1.4709 -0.0575
  923SOL    MW4 3466   1.378   3.437   5.401  0.1891 -0.3842  0.5792
  924SOL     OW 3467   1.334   0.643   2.801  0.0210  0.1497  0.6178
  924SOL    HW2 3468   1.316   0.651   2.708 -0.9555 -0.3756  0.7579
  924SOL    HW3 3469   1.315   0.552   2.822 -1.4147  0.6605  1.6628
  924SOL    MW4 3470   1.329   0.632   2.792 -0.4420 -0.1695  0.4310
  925SOL     OW 3471   6.099   1.643   4.676 -0.0376  0.1921  0.0082
  925SOL    HW2 3472   6.138   1.679   4.755 -0.8258  1.5608 -0.1996
  925SOL    HW3 3473   6.173   1.628   4.617  0.3385  1.2428  0.2023
  925SOL    MW4 3474   6.114   1.646   4.678 -0.0117  0.2291  0.0241
  926SOL     OW 3475   1.935   3.347   3.808 -0.1914 -0.2767  0.2359
  926SOL    HW2 3476   2.021   3.338   3.848 -0.8204 -0.8191  1.5355
  926SOL    HW3 3477   1.890   3.412   3.862  0.0836  1.6404 -1.7067
  926SOL    MW4 3478   1.940   3.354   3.820  0.2658  0.3459  0.2089
  927SOL     OW 3479   1.706   1.996   5.660 -0.3464 -0.6402 -0.5843
  927SOL    HW2 3480   1.743   2.082   5.681 -0.2648 -0.7398 -0.3066
  927SOL    HW3 3481   1.652   1.974   5.736 -0.4926 -0.7654 -0.7234
  927SOL    MW4 3482   1.704   2.004   5.673 -0.4726 -0.0762 -0.6784
  928SOL     OW 3483   4.383   2.163   2.264  0.0723  0.1393 -0.0493
  928SOL    HW2 3484   4.445   2.231   2.291 -0.7781  0.3778  1.4027
  928SOL    HW3 3485   4.413   2.084   2.308 -0.9424  0.3810  1.1306
  928SOL    MW4 3486   4.395   2.162   2.274  0.2074 -0.4678  0.5020
  929SOL     OW 3487   5.608   2.353   3.105 -0.3800 -0.6339  0.3975
  929SOL    HW2 3488   5.641   2.389   3.023  1.6367  0.0491  1.4335
  929SOL    HW3 3489   5.687   2.330   3.155 -1.4238  1.0332  3.0329
  929SOL    MW4 3490   5.622   2.355   3.101 -0.2662 -0.1787  0.4984
  930SOL     OW 3491   3.917   0.033   3.713 -0.5845  0.2426 -0.2723
  930SOL    HW2 3492   3.927  -0.051   3.758  1.3216 -0.7412 -2.3513
  930SOL    HW3 3493   3.830   0.029   3.673 -0.5682 -0.6779 -0.2276
  930SOL    MW4 3494   3.907   0.021   3.714 -0.3804  0.1299 -0.2986
  931SOL     OW 3495   1.488   2.412   5.332 -0.1288 -0.2443  0.1640
  931SOL    HW2 3496   1.562   2.390   5.389 -0.0019 -2.0011 -0.5923
  931SOL    HW3 3497   1.411   2.391   5.385 -0.0259 -0.9258  0.0596
  931SOL    MW4 3498   1.488   2.406   5.347  0.0446  0.4088  0.5222
  932SOL     OW 3499   4.596   1.480   6.208 -0.0101  0.1502 -0.1468
  932SOL    HW2 3500   4.546   1.514   6.134  0.4464 -2.0588 -1.5352
  932SOL    HW3 3501   4.687   1.483   6.179  0.1346 -1.1508  0.1467
  932SOL    MW4 3502   4.602   1.485   6.194  0.1879  0.6535 -0.1143
  933SOL     OW 3503   3.980   2.932   5.790  0.0556 -0.2392  0.6431
  933SOL    HW2 3504   3.962   2.956   5.699  0.6154  2.2816  1.1332
  933SOL    HW3 3505   4.022   2.846   5.784 -1.6702 -1.0329 -1.3002
  933SOL    MW4 3506   3.983   2.924   5.777 -0.4763 -0.3278  0.2089
  934SOL     OW 3507   3.056   0.864   4.492  0.0274 -0.1238 -0.3976
  934SOL    HW2 3508   2.961   0.870   4.478  0.0282 -1.9914 -1.4371
  934SOL    HW3 3509   3.065   0.807   4.568  0.3106  1.7303  1.0221
  934SOL    MW4 3510   3.045   0.857   4.500 -0.1070 -0.6347  0.1617
  935SOL     OW 3511   5.963   4.953   4.381  0.1501  0.0165 -0.1704
  935SOL    HW2 3512   5.888   4.910   4.341 -0.7093  1.0546  0.2773
  935SOL    HW3 3513   6.020   4.974   4.307  0.0804 -0.8921 -0.4995
  935SOL    MW4 3514   5.961   4.950   4.366  0.2058  0.1806  0.0734
  936SOL     OW 3515   4.198   2.854   2.007  0.3226 -0.3874 -0.8422
  936SOL    HW2 3516   4.116   2.829   2.049 -0.9752  0.8371 -2.4948
  936SOL    HW3 3517   4.233   2.771   1.972  0.4055 -1.0844  0.7853
  936SOL    MW4 3518   4.192   2.839   2.008 -0.4211 -0.2880  0.3851
  937SOL     OW 3519   2.804   3.190   5.803  0.3485 -0.5087 -0.0747
  937SOL    HW2 3520   2.744   3.247   5.756 -1.0569 -0.6774  1.4273
  937SOL    HW3 3521   2.876   3.175   5.742  0.7075  2.6860 -0.6367
  937SOL    MW4 3522   2.806   3.196   5.789  0.7268 -0.1784 -0.1428
  938SOL     OW 3523   6.200   1.088   6.334 -0.3829  0.6502 -0.1906
  938SOL    HW2 3524   6.185   1.040   6.416 -0.3803  2.2173  0.7876
  938SOL    HW3 3525   6.112   1.100   6.298 -0.4634  0.6092 -0.0123
  938SOL    MW4 3526   6.186   1.083   6.340 -0.0425 -0.0953 -0.3590
  939SOL     OW 3527   1.774   0.543   6.006  0.0983 -0.1837  0.2889
  939SOL    HW2 3528   1.717   0.620   5.999  0.1077 -0.1332  0.7277
  939SOL    HW3 3529   1.823   0.557   6.087 -0.5263 -1.0684  0.8345
  939SOL    MW4 3530   1.773   0.555   6.016 -0.1772 -0.7276  0.1956
  940SOL     OW 3531   2.998   1.088   2.557  0.1000 -0.1117 -0.1276
  940SOL    HW2 3532   3.088   1.116   2.573 -0.2244  2.4444 -2.1310
  940SOL    HW3 3533   2.945   1.145   2.613 -0.4261  1.4790 -2.1255
  940SOL    MW4 3534   3.003   1.100   2.567  0.1765  0.2540 -0.8203
  941SOL     OW 3535   1.841   5.114   1.250 -0.6666  0.1660  0.6751
  941SOL    HW2 3536   1.787   5.187   1.280  1.0733  1.9360 -0.1976
  941SOL    HW3 3537   1.873   5.073   1.330 -1.0660  0.8815  1.2119
  941SOL    MW4 3538   1.838   5.118   1.264  0.9557  0.1877 -0.4986
  942SOL     OW 3539   4.436   2.566   3.314 -0.0794 -0.1830  0.2194
  942SOL    HW2 3540   4.348   2.599   3.300 -0.0177 -0.1588 -0.1332
  942SOL    HW3 3541   4.492   2.625   3.264  0.2086  0.2133  0.9935
  942SOL    MW4 3542   4.432   2.578   3.305 -0.7483 -0.6775  0.0754
  943SOL     OW 3543   4.825   1.670   3.611  0.0888  0.1180 -0.3134
  943SOL    HW2 3544   4.858   1.651   3.699  1.1047 -1.0063 -0.9051
  943SOL    HW3 3545   4.827   1.586   3.566 -0.8046  0.6007 -1.2967
  943SOL    MW4 3546   4.830   1.657   3.616 -0.2145 -0.4229 -0.3803
  944SOL     OW 3547   4.821   2.261   0.459  0.0419 -0.1726 -0.1973
  944SOL    HW2 3548   4.800   2.339   0.511 -0.6087 -0.4409 -0.0443
  944SOL    HW3 3549   4.784   2.279   0.373  2.2456  0.8315 -1.0196
  944SOL    MW4 3550   4.814   2.274   0.455  0.0084  0.4942  0.4585
  945SOL     OW 3551   1.029   6.209   0.997 -0.0119 -0.3368 -0.2432
  945SOL    HW2 3552   1.122   6.204   1.021  0.3659 -1.3611 -1.7841
  945SOL    HW3 3553   1.015   6.302   0.976  0.9006 -0.3190 -0.8381
  945SOL    MW4 3554   1.040   6.221   0.998  0.5374  0.6996 -0.2584
  946SOL     OW 3555   4.434   4.857   5.645  0.3409  0.0053  0.2526
  946SOL    HW2 3556   4.382   4.893   5.574 -1.1775  0.3304  1.4845
  946SOL    HW3 3557   4.511   4.914   5.650  0.6606 -0.2282 -1.3073
  946SOL    MW4 3558   4.437   4.869   5.636  0.4572  0.4659  0.1168
  947SOL     OW 3559   1.214   5.021   5.154  0.3338 -0.2473  0.3651
  947SOL    HW2 3560   1.255   4.950   5.203  0.1285  0.8851  2.2843
  947SOL    HW3 3561   1.134   4.982   5.118  0.3506 -1.0675  1.1725
  947SOL    MW4 3562   1.209   5.007   5.156  0.7075  0.3881 -0.4666
  948SOL     OW 3563   1.392   1.338   3.721 -0.2105 -0.3962 -0.0527
  948SOL    HW2 3564   1.356   1.426   3.710 -2.2475 -1.0685  0.6638
  948SOL    HW3 3565   1.464   1.349   3.783 -0.2642  0.7874 -0.1660
  948SOL    MW4 3566   1.397   1.351   3.728  0.5063  0.2669 -0.0405
  949SOL     OW 3567   5.796   4.357   3.780 -0.2389 -0.2469 -0.3465
  949SOL    HW2 3568   5.788   4.451   3.764  0.5127 -0.2499 -0.7512
  949SOL    HW3 3569   5.822   4.351   3.872 -1.4103 -0.1124  0.0084
  949SOL    MW4 3570   5.798   4.369   3.790 -0.3487 -0.2245  0.7291
  950SOL     OW 3571   5.643   3.143   2.995 -0.0747  0.1491 -0.5863
  950SOL    HW2 3572   5.591   3.077   2.949  0.0949 -0.2053 -0.2779
  950SOL    HW3 3573   5.734   3.115   2.983 -0.0998 -1.3105  1.9338
  950SOL    MW4 3574   5.648   3.131   2.987  0.2946 -0.3444 -0.4816
  951SOL     OW 3575   0.200   5.081   0.241 -0.1123  0.4687  0.7705
  951SOL    HW2 3576   0.137   5.078   0.313 -0.2265 -0.0743  0.6509
  951SOL    HW3 3577   0.276   5.032   0.274 -0.3463 -0.1867  0.3495
  951SOL    MW4 3578   0.202   5.074   0.255 -0.1906  0.3093 -0.0910
  952SOL     OW 3579   2.204   6.090   0.795  0.0951  0.5486  0.2902
  952SOL    HW2 3580   2.113   6.061   0.799  0.9722 -2.4795  1.5867
  952SOL    HW3 3581   2.243   6.036   0.725  0.8939  1.9409 -0.3903
  952SOL    MW4 3582   2.197   6.079   0.786  0.2834  0.1771  0.2197
  953SOL     OW 3583   0.606   5.011   2.641 -0.5206  0.0474 -0.1900
  953SOL    HW2 3584   0.593   5.023   2.735  0.5877 -1.5015  0.1956
  953SOL    HW3 3585   0.683   5.065   2.621 -0.9751  0.6670 -0.2977
  953SOL    MW4 3586   0.615   5.020   2.651  0.1719  0.6218 -0.7713
  954SOL     OW 3587   2.636   3.119   2.513  0.0063 -0.0564  0.5501
  954SOL    HW2 3588   2.620   3.033   2.552  0.1750 -0.1010  0.5234
  954SOL    HW3 3589   2.563   3.173   2.543 -0.6630 -0.4823 -0.2803
  954SOL    MW4 3590   2.624   3.115   2.522  0.1585 -0.6915 -0.4123
  955SOL     OW 3591   5.279   1.536   5.899  0.4263  0.2069  0.7194
  955SOL    HW2 3592   5.235   1.618   5.919  0.5021 -0.0498  2.0216
  955SOL    HW3 3593   5.292   1.538   5.804 -2.0284  0.4668  0.3158
  955SOL    MW4 3594   5.275   1.547   5.889 -0.3018 -0.5263 -0.4110
  956SOL     OW 3595   0.247   5.857   3.804 -0.1775  0.1316 -0.1985
  956SOL    HW2 3596   0.223   5.906   3.725  0.1541  0.0519 -0.3476
  956SOL    HW3 3597   0.222   5.914   3.876  0.5798  0.6937 -0.3749
  956SOL    MW4 3598   0.240   5.871   3.803 -0.1998  0.2118 -0.2529
  957SOL     OW 3599   4.426   5.898   2.640 -0.2027 -0.4304  0.4566
  957SOL    HW2 3600   4.358   5.885   2.574 -0.5354  0.4586  0.6033
  957SOL    HW3 3601   4.423   5.992   2.659  0.5838 -0.5020  0.9895
  957SOL    MW4 3602   4.416   5.909   2.634  0.2538  0.2981 -0.3710
  958SOL     OW 3603   5.691   2.446   3.823  0.1571  0.1819  0.0703
  958SOL    HW2 3604   5.767   2.412   3.870  0.5529  0.1944 -0.5340
  958SOL    HW3 3605   5.615   2.415   3.872  0.5528 -0.0634  0.5288
  958SOL    MW4 3606   5.691   2.437   3.835  0.6178  0.2471  0.2244
  959SOL     OW 3607   1.617   4.764   0.949 -0.1231 -0.0041  0.1457
  959SOL    HW2 3608   1.683   4.824   0.984  0.0064  0.8418 -1.4690
  959SOL    HW3 3609   1.540   4.819   0.935 -0.7438 -0.7003  0.7075
  959SOL    MW4 3610   1.616   4.779   0.952 -0.0173  0.2993 -0.3237
  960SOL     OW 3611   1.939   3.105   4.910  0.0794  0.1650 -0.4026
  960SOL    HW2 3612   1.879   3.150   4.970 -0.2280  0.1229 -0.6743
  960SOL    HW3 3613   1.976   3.175   4.857  0.6652  0.2471  0.1119
  960SOL    MW4 3614   1.936   3.120   4.911  0.3062  0.2667 -0.0704
  961SOL     OW 3615   4.246   6.345   6.421 -0.4683 -0.2976  0.1624
  961SOL    HW2 3616   4.263   6.282   6.351 -0.4036 -0.0153 -0.0812
  961SOL    HW3 3617   4.304   6.419   6.401  0.1739 -0.5640  0.9945
  961SOL    MW4 3618   4.256   6.346   6.409 -0.2865  0.5854  0.0932
  962SOL     OW 3619   5.121   6.045   0.457 -0.2375 -0.3504  0.0661
  962SOL    HW2 3620   5.076   6.020   0.538  0.2147 -0.4205  0.2970
  962SOL    HW3 3621   5.194   5.984   0.451 -0.0509 -0.1001 -0.1999
  962SOL    MW4 3622   5.125   6.033   0.467 -0.2952  0.4202  0.0050
  963SOL     OW 3623   4.307   3.111   3.083 -0.2078 -0.1077 -0.1409
  963SOL    HW2 3624   4.272   3.199   3.094  0.3422  0.2361 -1.0584
  963SOL    HW3 3625   4.386   3.109   3.137 -0.1734 -0.0247 -0.1901
  963SOL    MW4 3626   4.313   3.122   3.092  0.1235  0.3942 -0.3441
  964SOL     OW 3627   2.683   3.713   4.727  0.4031 -0.3352 -0.3870
  964SOL    HW2 3628   2.620   3.768   4.775  0.8945  0.2583 -0.4091
  964SOL    HW3 3629   2.680   3.747   4.637  1.1757  0.0821 -0.2607
  964SOL    MW4 3630   2.674   3.725   4.721 -0.5139  0.4858 -0.5450
  965SOL     OW 3631   3.548   4.905   2.980 -0.0301  0.0918  0.0955
  965SOL    HW2 3632   3.484   4.961   2.935  0.2209 -1.6031 -2.6237
  965SOL    HW3 3633   3.629   4.955   2.979 -0.6551  1.1734  1.1699
  965SOL    MW4 3634   3.550   4.919   2.974  0.2286 -0.1460  0.3612
  966SOL     OW 3635   5.590   1.008   2.210 -0.1193 -0.1761 -0.5455
  966SOL    HW2 3636   5.539   1.016   2.130 -0.6949 -0.7525 -0.2343
  966SOL    HW3 3637   5.626   0.919   2.208  0.1969 -0.0580 -0.3547
  966SOL    MW4 3638   5.588   0.998   2.200  0.7453 -0.2375  0.0713
  967SOL     OW 3639   3.361   2.199   4.066  0.2271 -0.2068 -1.0160
  967SOL    HW2 3640   3.419   2.266   4.030 -0.1776  0.2107 -0.9088
  967SOL    HW3 3641   3.297   2.183   3.997 -0.2416  0.2176 -0.6878
  967SOL    MW4 3642   3.360   2.206   4.052  0.1312 -0.4499  0.1657
  968SOL     OW 3643   5.175   2.770   1.698 -0.1330  0.5438 -0.1956
  968SOL    HW2 3644   5.108   2.766   1.767 -0.2973  0.2101 -0.3699
  968SOL    HW3 3645   5.170   2.684   1.656  1.4726 -0.0942  0.8083
  968SOL    MW4 3646   5.166   2.758   1.702 -0.1834  0.3517 -0.6467
  969SOL     OW 3647   5.742   3.502   2.674 -0.1108  0.3611  0.0340
  969SOL    HW2 3648   5.792   3.456   2.741 -1.1053  2.0204  2.0249
  969SOL    HW3 3649   5.654   3.510   2.710 -0.3648  2.4374 -0.8659
  969SOL    MW4 3650   5.737   3.497   2.687 -0.4776  0.7473  0.8376
  970SOL     OW 3651   3.821   1.592   5.693  0.2453  0.0958  0.2939
  970SOL    HW2 3652   3.807   1.649   5.618 -2.9808 -2.2423 -1.1290
  970SOL    HW3 3653   3.886   1.528   5.663 -0.9884 -0.7929 -0.5623
  970SOL    MW4 3654   3.828   1.591   5.679  0.8364 -0.3153 -0.2456
  971SOL     OW 3655   5.304   1.536   4.634  0.2312  0.4133  0.6244
  971SOL    HW2 3656   5.278   1.496   4.717  0.0757 -0.8476  0.0040
  971SOL    HW3 3657   5.228   1.588   4.608 -0.6834 -1.0865  0.1446
  971SOL    MW4 3658   5.290   1.537   4.641  0.0550 -0.6230  0.1032
  972SOL     OW 3659   4.472   5.428   0.063 -0.2347  0.1178  0.2545
  972SOL    HW2 3660   4.470   5.523   0.050 -1.1674  0.1566  0.5764
  972SOL    HW3 3661   4.425   5.414   0.145  1.0215 -0.5273  0.8988
  972SOL    MW4 3662   4.466   5.439   0.072 -0.4612  0.6412  0.0186
  973SOL     OW 3663   3.997   3.832   0.420  0.1446  0.3756  0.6726
  973SOL    HW2 3664   3.956   3.769   0.479 -1.0953  0.3260 -0.1791
  973SOL    HW3 3665   4.043   3.893   0.477  0.8155 -0.9107  1.5434
  973SOL    MW4 3666   3.997   3.832   0.435  0.9837  0.4820 -0.5335
  974SOL     OW 3667   0.597   3.795   1.312  0.7406  0.5641 -0.0369
  974SOL    HW2 3668   0.538   3.765   1.243 -0.1881  1.6487  0.2560
  974SOL    HW3 3669   0.566   3.751   1.391  0.8324  0.5154 -0.0277
  974SOL    MW4 3670   0.585   3.786   1.314  0.2603 -0.0691 -0.7508
  975SOL     OW 3671   4.381   0.347   5.910 -0.6181 -0.2330 -0.0701
  975SOL    HW2 3672   4.296   0.368   5.869 -0.9529 -2.0919 -0.4320
  975SOL    HW3 3673   4.376   0.386   5.997 -1.9667 -0.5250  0.0069
  975SOL    MW4 3674   4.369   0.355   5.916 -0.2410  0.4151 -0.0037
  976SOL     OW 3675   5.034   3.330   0.371 -0.1187 -0.7519 -0.0847
  976SOL    HW2 3676   5.047   3.235   0.367 -1.0486 -0.9324  0.6408
  976SOL    HW3 3677   5.085   3.358   0.447  1.4059 -0.4042 -1.1776
  976SOL    MW4 3678   5.042   3.321   0.381  0.0005 -0.0736 -0.4317
  977SOL     OW 3679   3.476   3.966   6.316  0.6803  0.5449 -0.1500
  977SOL    HW2 3680   3.501   4.032   6.252 -0.3945  0.2138 -0.9503
  977SOL    HW3 3681   3.380   3.964   6.312  0.7086 -2.1741 -1.3261
  977SOL    MW4 3682   3.466   3.975   6.307  0.6681 -0.6163  0.3518
  978SOL     OW 3683   0.522   1.392   5.280  0.1564 -0.1531  0.4860
  978SOL    HW2 3684   0.472   1.345   5.212  0.3455 -0.0562  0.2767
  978SOL    HW3 3685   0.554   1.322   5.338  0.0038 -0.2383  0.4688
  978SOL    MW4 3686   0.519   1.376   5.278  0.4705  0.5885 -0.3257
  979SOL     OW 3687   4.796   4.956   4.761  0.4076 -0.1454 -0.3153
  979SOL    HW2 3688   4.814   4.882   4.703  2.7275 -0.0636  0.2239
  979SOL    HW3 3689   4.777   4.916   4.846 -0.4856 -0.1688 -0.5139
  979SOL    MW4 3690   4.796   4.941   4.765  0.2563  0.0072  0.0032
  980SOL     OW 3691   4.998   0.777   2.537  0.4143  0.0350 -0.0070
  980SOL    HW2 3692   5.058   0.844   2.568  0.1747  0.1694  0.1718
  980SOL    HW3 3693   4.922   0.785   2.594  0.5071 -0.5938  0.2118
  980SOL    MW4 3694   4.996   0.787   2.549 -0.0211  0.5174 -0.6754
  981SOL     OW 3695   0.469   5.749   0.849  0.4867 -0.6099  0.0824
  981SOL    HW2 3696   0.421   5.666   0.859 -0.5223  0.0315  0.6591
  981SOL    HW3 3697   0.544   5.741   0.908 -1.1365 -0.0089  2.3121
  981SOL    MW4 3698   0.473   5.737   0.858 -0.3956 -0.3186 -0.6021
  982SOL     OW 3699   4.950   0.837   0.982 -0.4190  0.0432 -0.3393
  982SOL    HW2 3700   4.876   0.776   0.987  0.3110 -0.8329  0.0271
  982SOL    HW3 3701   4.910   0.924   0.990 -1.3069 -0.4575  1.0732
  982SOL    MW4 3702   4.935   0.841   0.984 -0.2488 -0.3882 -0.1689
  983SOL     OW 3703   3.429   5.546   2.835  0.0823 -0.4227 -0.3772
  983SOL    HW2 3704   3.404   5.476   2.894  3.3423 -0.3127  1.3524
  983SOL    HW3 3705   3.414   5.626   2.886  1.0014 -0.2005 -0.4446
  983SOL    MW4 3706   3.424   5.548   2.849 -0.4142 -0.0407 -0.6291
  984SOL     OW 3707   1.170   2.937   5.313  0.0722  0.3650  0.1845
  984SOL    HW2 3708   1.131   2.882   5.381 -1.6782 -0.0925 -1.1403
  984SOL    HW3 3709   1.097   2.986   5.277  1.1444  1.3825 -0.6912
  984SOL    MW4 3710   1.155   2.936   5.317 -0.0209 -0.6386  0.5505
  985SOL     OW 3711   3.071   0.283   2.703 -0.4836 -0.1497  0.0129
  985SOL    HW2 3712   3.001   0.329   2.748 -1.3063 -1.3836  0.0266
  985SOL    HW3 3713   3.043   0.192   2.701  1.2811 -0.7326  0.3148
  985SOL    MW4 3714   3.058   0.277   2.709  0.1486 -0.1196  0.3697
  986SOL     OW 3715   6.017   5.764   2.702 -0.0487 -0.1087  0.3420
  986SOL    HW2 3716   6.009   5.759   2.797  0.3531 -1.3618  0.3269
  986SOL    HW3 3717   5.995   5.855   2.681 -3.4068 -0.5969  1.2914
  986SOL    MW4 3718   6.013   5.775   2.712  0.1119  0.0859  0.6753
  987SOL     OW 3719   3.903   5.041   4.354  0.4586  0.3060  0.4194
  987SOL    HW2 3720   3.995   5.031   4.378  0.5514  2.2847  1.0687
  987SOL    HW3 3721   3.858   5.056   4.438 -0.4381 -0.4824  0.0925
  987SOL    MW4 3722   3.910   5.042   4.369 -0.1184 -0.2195  0.4065
  988SOL     OW 3723   6.418   3.379   4.936  0.0145  0.1517  0.0442
  988SOL    HW2 3724   6.408   3.472   4.918  1.4117  0.5302  1.0716
  988SOL    HW3 3725   6.346   3.337   4.888 -0.6050  1.7394 -0.4642
  988SOL    MW4 3726   6.407   3.385   4.927  0.0887 -0.0030 -0.3253
  989SOL     OW 3727   3.989   3.864   1.933  0.3570 -0.1074 -0.2781
  989SOL    HW2 3728   4.083   3.846   1.936 -0.0115 -2.4194  2.7485
  989SOL    HW3 3729   3.971   3.881   1.841  3.4864 -1.1164 -1.2170
  989SOL    MW4 3730   3.999   3.864   1.921 -0.0907  0.1154 -0.0467
  990SOL     OW 3731   3.712   1.810   5.521 -0.2291 -0.1040  0.0914
  990SOL    HW2 3732   3.719   1.905   5.508  0.8221 -0.3517 -1.4921
  990SOL    HW3 3733   3.742   1.773   5.437 -1.3259 -1.8217  0.4292
  990SOL    MW4 3734   3.717   1.818   5.508 -0.0077  0.2568  0.5079
  991SOL     OW 3735   0.751   3.225   2.286 -0.2463 -0.4525 -0.1314
  991SOL    HW2 3736   0.735   3.270   2.369  1.6198 -2.3385  1.3623
  991SOL    HW3 3737   0.663   3.210   2.249 -1.1587  0.0408  1.7230
  991SOL    MW4 3738   0.737   3.229   2.292 -0.0644 -0.3173 -0.0924
  992SOL     OW 3739   0.078   2.287   1.788 -0.3310 -0.0911 -0.0374
  992SOL    HW2 3740   0.023   2.285   1.866  0.3128  0.1579  0.4374
  992SOL    HW3 3741   0.151   2.229   1.809 -0.1677 -0.0426 -0.4648
  992SOL    MW4 3742   0.081   2.279   1.801 -0.0307  0.4685  0.0262
  993SOL     OW 3743   2.822   1.636   0.954 -0.3526 -0.0788 -0.5696
  993SOL    HW2 3744   2.910   1.601   0.965 -0.5449 -0.1266  0.9735
  993SOL    HW3 3745   2.835   1.719   0.909  0.4312 -0.3324 -0.8264
  993SOL    MW4 3746   2.835   1.642   0.949  0.6398  0.4485  0.5990
  994SOL     OW 3747   0.026   5.630   2.491  0.4281 -0.0723  0.0918
  994SOL    HW2 3748  -0.003   5.550   2.535  0.2194  0.1482  0.3545
  994SOL    HW3 3749  -0.019   5.700   2.537 -0.7068  0.0975 -1.2071
  994SOL    MW4 3750   0.016   5.628   2.502  0.3594 -0.6128  0.2517
  995SOL     OW 3751   4.309   6.117   6.254 -0.6352 -0.1537 -0.8371
  995SOL    HW2 3752   4.220   6.112   6.291 -0.4204 -2.1345 -0.5140
  995SOL    HW3 3753   4.365   6.078   6.320  0.8659  2.9244 -0.1166
  995SOL    MW4 3754   4.304   6.112   6.268 -0.8124 -0.4209 -0.3793
  996SOL     OW 3755   6.008   3.729   5.276  0.0082  0.2612 -0.1158
  996SOL    HW2 3756   5.931   3.694   5.231  0.8791 -2.3164  0.2290
  996SOL    HW3 3757   6.062   3.766   5.206 -0.2325 -0.5765 -0.7582
  996SOL    MW4 3758   6.005   3.730   5.261 -0.4784  0.0782  0.1721
  997SOL     OW 3759   3.734   3.180   0.579  0.0150 -0.1807 -0.4080
  997SOL    HW2 3760   3.750   3.097   0.534  0.7715 -0.7047  0.7830
  997SOL    HW3 3761   3.638   3.184   0.587  0.0038 -1.5873  0.6553
  997SOL    MW4 3762   3.723   3.169   0.574 -0.5116  0.6629 -0.1443
  998SOL     OW 3763   3.915   3.411   2.366  0.1119 -0.1292  0.0291
  998SOL    HW2 3764   3.964   3.399   2.285 -0.0521 -0.1284 -0.0698
  998SOL    HW3 3765   3.888   3.503   2.365  0.2353 -0.0909  0.1546
  998SOL    MW4 3766   3.918   3.422   2.355 -0.2298  0.2106 -0.1265
  999SOL     OW 3767   1.687   2.381   1.890 -0.2226 -0.3351 -0.1794
  999SOL    HW2 3768   1.732   2.464   1.906 -0.0822 -0.1271 -1.5176
  999SOL    HW3 3769   1.672   2.345   1.977  0.9919  0.4121  0.3734
  999SOL    MW4 3770   1.691   2.387   1.903 -0.2767  0.4528 -0.4278
 1000SOL     OW 3771   3.928   4.473   2.510 -0.5888  0.4126  0.3224
 1000SOL    HW2 3772   3.869   4.509   2.576 -0.9768 -0.4856  0.4681
 1000SOL    HW3 3773   3.990   4.419   2.560 -1.3135 -0.8436 -0.1070
 1000SOL    MW4 3774   3.929   4.471   2.525  0.2074  0.1425  0.5841
 1001SOL     OW 3775   6.022   4.631   4.927 -1.0358 -0.5057  0.0625
 1001SOL    HW2 3776   6.095   4.656   4.984 -0.8742 -1.7623  0.4552
 1001SOL    HW3 3777   6.045   4.668   4.841  1.0306 -2.3593 -0.2974
 1001SOL    MW4 3778   6.035   4.639   4.923  0.2533 -0.0438 -0.8059
 1002SOL     OW 3779   3.079   1.816   2.427  0.2983 -0.0941 -0.6044
 1002SOL    HW2 3780   2.984   1.811   2.439  0.4196 -0.7858  0.1658
 1002SOL    HW3 3781   3.115   1.770   2.503  1.2079 -1.3594 -1.7526
 1002SOL    MW4 3782   3.071   1.809   2.439 -0.2402  0.6810 -0.4212
 1003SOL     OW 3783   5.741   0.460   5.981 -0.1276  0.1034 -0.0722
 1003SOL    HW2 3784   5.786   0.507   5.911 -0.0991  1.5010  0.8506
 1003SOL    HW3 3785   5.768   0.369   5.969  3.3740  0.8707  0.6780
 1003SOL    MW4 3786   5.751   0.454   5.970 -0.5467 -0.7832 -0.3945
 1004SOL     OW 3787   4.173   4.939   2.805  0.5215  0.4169  0.2623
 1004SOL    HW2 3788   4.231   4.941   2.728  1.5569 -1.5050  0.9142
 1004SOL    HW3 3789   4.174   5.028   2.838 -0.2792  1.4112 -2.1551
 1004SOL    MW4 3790   4.181   4.951   2.799  0.5377  0.3355 -0.2782
 1005SOL     OW 3791   3.320   5.734   3.033 -0.7679  0.2489  0.0294
 1005SOL    HW2 3792   3.328   5.829   3.025  0.7415  0.1906  0.4737
 1005SOL    HW3 3793   3.364   5.714   3.116  0.4498 -0.9989 -0.8674
 1005SOL    MW4 3794   3.327   5.744   3.043 -0.5655 -0.5087  0.1281
 1006SOL     OW 3795   3.022   3.021   4.219  0.0651  0.4397  0.1613
 1006SOL    HW2 3796   3.000   3.101   4.267 -1.6961  0.9054 -1.2976
 1006SOL    HW3 3797   3.090   3.048   4.157  2.6732 -0.2604  2.5000
 1006SOL    MW4 3798   3.028   3.036   4.218  0.2668 -0.2773  0.0869
 1007SOL     OW 3799   5.049   0.621   4.100  0.8999  0.1851 -0.2525
 1007SOL    HW2 3800   5.082   0.656   4.182 -1.2350 -0.9389  1.1760
 1007SOL    HW3 3801   5.054   0.694   4.039  2.0393  1.1988  0.9862
 1007SOL    MW4 3802   5.054   0.635   4.103 -1.0422  0.1769  0.1628
 1008SOL     OW 3803   0.461   6.132   1.365 -0.6571  0.1850  0.1476
 1008SOL    HW2 3804   0.376   6.098   1.393 -1.3500  1.0129 -0.8483
 1008SOL    HW3 3805   0.456   6.226   1.384 -0.1279  0.3074 -0.2971
 1008SOL    MW4 3806   0.449   6.140   1.372  0.5274 -0.8620  0.1746
 1009SOL     OW 3807   1.221   5.595   0.592  0.0928 -0.2058 -0.3847
 1009SOL    HW2 3808   1.168   5.516   0.578  1.0293 -0.7505 -0.9101
 1009SOL    HW3 3809   1.161   5.667   0.571 -1.5046 -0.6123  2.2538
 1009SOL    MW4 3810   1.206   5.594   0.587  0.2196  0.5818  0.0998
 1010SOL     OW 3811   5.525   6.329   6.355 -0.7622 -0.6726  0.3635
 1010SOL    HW2 3812   5.578   6.399   6.394 -0.4714 -1.9031  2.2538
 1010SOL    HW3 3813   5.587   6.260   6.334 -1.0480 -0.4155 -1.5230
 1010SOL    MW4 3814   5.540   6.329   6.357  0.3299  1.0384 -0.4690
 1011SOL     OW 3815   0.509   3.255   2.709 -0.2297  0.0517 -0.5464
 1011SOL    HW2 3816   0.537   3.164   2.699  2.0415  0.7388 -0.8982
 1011SOL    HW3 3817   0.425   3.259   2.664 -1.4576 -2.3245  1.2819
 1011SOL    MW4 3818   0.501   3.243   2.702 -0.1143  0.3061 -0.1861
 1012SOL     OW 3819   1.331   0.761   3.331  0.4807 -0.0160  0.1028
 1012SOL    HW2 3820   1.275   0.725   3.263  0.9634 -0.2630 -0.1752
 1012SOL    HW3 3821   1.385   0.826   3.285  0.7165 -0.0894  0.2748
 1012SOL    MW4 3822   1.331   0.765   3.316  0.5759  0.2033 -0.1030
 1013SOL     OW 3823   0.803   6.223   5.367 -0.2211  0.5872 -0.0057
 1013SOL    HW2 3824   0.714   6.210   5.400  0.1433 -1.1614  0.4145
 1013SOL    HW3 3825   0.859   6.179   5.431  1.0365  2.3073  0.1394
 1013SOL    MW4 3826   0.798   6.215   5.380  0.2538 -0.1386  0.0386
 1014SOL     OW 3827   0.835   3.601   3.286  0.6011 -0.3186  0.1717
 1014SOL    HW2 3828   0.834   3.549   3.366  1.4008 -1.6256 -0.6360
 1014SOL    HW3 3829   0.766   3.562   3.231  1.2489 -0.5803 -0.4654
 1014SOL    MW4 3830   0.826   3.589   3.289  0.0595 -0.1355  0.9197
 1015SOL     OW 3831   0.684   1.586   3.441  0.5516 -0.4321 -0.3013
 1015SOL    HW2 3832   0.606   1.621   3.483 -0.1250 -1.3976 -0.7308
 1015SOL    HW3 3833   0.757   1.629   3.486 -0.1807 -0.6360  1.1037
 1015SOL    MW4 3834   0.684   1.596   3.452 -0.1572  0.0199 -0.1530
 1016SOL     OW 3835   3.460   1.088   0.986 -0.0153 -0.8863 -0.0695
 1016SOL    HW2 3836   3.541   1.118   0.944  0.6284 -0.9489  1.0962
 1016SOL    HW3 3837   3.391   1.132   0.937  0.7911  0.4686 -0.0501
 1016SOL    MW4 3838   3.462   1.098   0.974 -0.2377 -0.2144 -0.2646
 1017SOL     OW 3839   3.990   0.679   0.866 -1.0757 -0.2096 -0.1550
 1017SOL    HW2 3840   3.939   0.631   0.932 -1.8055 -1.1587 -1.3814
 1017SOL    HW3 3841   3.931   0.687   0.791 -0.0052  0.2034 -0.9676
 1017SOL    MW4 3842   3.975   0.674   0.865  0.2892  0.1844 -0.1521
 1018SOL     OW 3843   3.135   5.244   5.024 -0.3609 -0.1919  0.0035
 1018SOL    HW2 3844   3.165   5.163   4.982  3.0662  1.2841 -0.7893
 1018SOL    HW3 3845   3.111   5.302   4.951 -2.1351 -0.2064  0.5326
 1018SOL    MW4 3846   3.136   5.241   5.009  0.2518 -0.2339  0.1014
 1019SOL     OW 3847   4.100   2.927   1.354 -0.3569  0.3175 -0.3584
 1019SOL    HW2 3848   4.035   2.996   1.348 -0.0987  0.5074 -1.0953
 1019SOL    HW3 3849   4.177   2.969   1.392 -0.3714  0.3094 -0.3198
 1019SOL    MW4 3850   4.102   2.942   1.358  0.1980  0.2062 -0.1779
 1020SOL     OW 3851   2.925   6.222   6.225  0.3934  0.5825 -0.0138
 1020SOL    HW2 3852   3.018   6.208   6.211  0.0860 -0.8363 -0.7976
 1020SOL    HW3 3853   2.919   6.258   6.314  1.9701  4.4063 -1.2400
 1020SOL    MW4 3854   2.936   6.225   6.235 -0.1427  0.1537 -0.3349
 1021SOL     OW 3855   4.506   4.395   5.823 -0.3587  0.2479 -0.3191
 1021SOL    HW2 3856   4.471   4.484   5.826 -0.9504 -0.0062  0.5087
 1021SOL    HW3 3857   4.431   4.340   5.798 -0.0759 -0.0556 -0.5160
 1021SOL    MW4 3858   4.491   4.399   5.820 -0.0830 -0.0801  0.3157
 1022SOL     OW 3859   1.379   5.419   2.579 -0.0306 -0.4183 -0.0446
 1022SOL    HW2 3860   1.351   5.432   2.670  0.0783 -0.5383  0.0067
 1022SOL    HW3 3861   1.474   5.437   2.581  0.2458 -1.7969  0.1506
 1022SOL    MW4 3862   1.388   5.423   2.592  0.3026 -0.3274  0.0234
 1023SOL     OW 3863   2.096   6.255   1.230  0.3346  0.2491 -0.2710
 1023SOL    HW2 3864   2.104   6.203   1.310 -1.9308 -2.6076 -1.7348
 1023SOL    HW3 3865   2.156   6.213   1.169 -1.1030 -0.3415 -1.3133
 1023SOL    MW4 3866   2.105   6.243   1.233 -0.4850  0.4337 -0.5692
 1024SOL     OW 3867   4.726   5.706   1.341 -0.3993 -0.3471 -0.2529
 1024SOL    HW2 3868   4.816   5.702   1.374 -0.0637 -0.7305 -1.1763
 1024SOL    HW3 3869   4.679   5.758   1.406  0.8536  1.2424 -0.5520
 1024SOL    MW4 3870   4.732   5.712   1.354  0.3330 -0.2178 -0.1166
 1025SOL     OW 3871   0.223   1.533   3.939 -0.2206  0.3499 -0.1946
 1025SOL    HW2 3872   0.162   1.582   3.884 -0.4758  0.6196  0.3269
 1025SOL    HW3 3873   0.181   1.449   3.953  0.5079 -0.2879 -1.6317
 1025SOL    MW4 3874   0.210   1.529   3.933  0.2191  0.0855 -0.0789
 1026SOL     OW 3875   5.104   2.228   1.280  0.2879 -0.5079  0.2615
 1026SOL    HW2 3876   5.125   2.177   1.202 -0.3095  0.6953 -0.7199
 1026SOL    HW3 3877   5.011   2.212   1.296  0.0474  0.3964 -0.1715
 1026SOL    MW4 3878   5.095   2.219   1.272  0.0795 -0.1358 -0.3792
 1027SOL     OW 3879   4.553   5.291   6.261 -0.2073 -0.5859 -0.2256
 1027SOL    HW2 3880   4.541   5.322   6.350 -1.7335 -2.2310  0.1860
 1027SOL    HW3 3881   4.474   5.242   6.241  0.7848 -1.6229 -1.9042
 1027SOL    MW4 3882   4.541   5.288   6.270  0.3320  0.8648 -0.1529
 1028SOL     OW 3883   3.518   0.382   0.332  0.2169  0.6788 -0.6457
 1028SOL    HW2 3884   3.564   0.419   0.256  0.8081  1.2019 -0.0466
 1028SOL    HW3 3885   3.426   0.405   0.319  0.2861  0.6081 -1.2863
 1028SOL    MW4 3886   3.512   0.390   0.320 -0.3831 -0.3522 -0.0055
 1029SOL     OW 3887   2.994   3.394   5.679 -0.0925 -0.3582  0.2853
 1029SOL    HW2 3888   2.942   3.437   5.747 -1.8537 -1.0731 -0.5523
 1029SOL    HW3 3889   3.054   3.462   5.649 -2.4448  1.4527 -0.6506
 1029SOL    MW4 3890   2.995   3.409   5.684 -0.4884  0.0479  0.1607
 1030SOL     OW 3891   2.622   0.181   2.604 -0.4757  0.6089  0.6144
 1030SOL    HW2 3892   2.569   0.259   2.587  0.9353  1.1407 -1.9382
 1030SOL    HW3 3893   2.560   0.115   2.634 -2.1287  1.9519  0.2761
 1030SOL    MW4 3894   2.607   0.183   2.606 -0.0875 -1.2571  0.1896
 1031SOL     OW 3895   2.856   3.850   4.880  0.1619 -0.0479 -0.3801
 1031SOL    HW2 3896   2.802   3.787   4.833  0.6464 -1.2594  0.6331
 1031SOL    HW3 3897   2.805   3.873   4.958 -0.4718  1.6585 -1.2363
 1031SOL    MW4 3898   2.842   3.845   4.884 -0.4369 -0.1966 -0.0264
 1032SOL     OW 3899   5.956   4.754   2.385 -0.0028 -0.5618  0.2825
 1032SOL    HW2 3900   5.921   4.829   2.337  0.9712  1.6931  2.7987
 1032SOL    HW3 3901   5.883   4.727   2.442 -0.3575 -1.5735 -0.6356
 1032SOL    MW4 3902   5.942   4.760   2.386 -0.1321  0.3268 -0.1263
 1033SOL     OW 3903   4.884   4.732   5.592  0.0423  0.2139  0.0244
 1033SOL    HW2 3904   4.910   4.821   5.568 -0.7023  0.8327  1.4126
 1033SOL    HW3 3905   4.806   4.715   5.539  0.2222  0.3423 -0.2903
 1033SOL    MW4 3906   4.877   4.741   5.582 -0.4458 -0.3676  0.0672
 1034SOL     OW 3907   1.698   5.375   3.710 -0.1317 -1.0066 -0.8194
 1034SOL    HW2 3908   1.732   5.417   3.790  0.5074 -0.8452 -1.1703
 1034SOL    HW3 3909   1.626   5.321   3.741 -0.8917  0.2323 -0.3305
 1034SOL    MW4 3910   1.693   5.374   3.725  0.0828 -1.0517 -0.5287
 1035SOL     OW 3911   2.269   5.670   1.091 -0.5497  0.2087  0.4364
 1035SOL    HW2 3912   2.232   5.592   1.050 -0.0236  0.5741 -0.7745
 1035SOL    HW3 3913   2.193   5.718   1.125 -0.8396 -1.0482  1.6278
 1035SOL    MW4 3914   2.254   5.666   1.090  0.4119 -0.3822  0.1435
 1036SOL     OW 3915   4.504   2.030   1.213  0.2589 -1.0951  0.2110
 1036SOL    HW2 3916   4.421   2.050   1.168  0.2832 -1.4479  0.0095
 1036SOL    HW3 3917   4.479   2.018   1.305  0.2619 -0.0012  0.3659
 1036SOL    MW4 3918   4.489   2.031   1.219  0.3829  0.2838  0.8447
 1037SOL     OW 3919   3.080   4.796   6.338  0.3978 -0.1041 -0.7486
 1037SOL    HW2 3920   3.136   4.722   6.361  0.7702 -0.0675 -1.5095
 1037SOL    HW3 3921   2.992   4.759   6.335  0.1949  0.0637  1.5121
 1037SOL    MW4 3922   3.076   4.781   6.341  0.1974 -0.8887 -0.2223
 1038SOL     OW 3923   1.912   2.064   5.987 -0.1859  0.1333 -0.0627
 1038SOL    HW2 3924   1.856   2.016   6.048  0.8419 -0.2660  0.5979
 1038SOL    HW3 3925   1.960   1.996   5.940  3.3586  0.3442  2.8114
 1038SOL    MW4 3926   1.911   2.049   5.989  0.6308 -0.0004  0.7412
 1039SOL     OW 3927   3.050   5.468   1.974  0.1013 -0.3437 -0.4706
 1039SOL    HW2 3928   3.072   5.520   1.896  0.5605 -0.9217 -0.7368
 1039SOL    HW3 3929   3.117   5.491   2.038  1.4561 -1.9741 -1.2227
 1039SOL    MW4 3930   3.062   5.478   1.972 -0.2381  0.3153  0.1762
 1040SOL     OW 3931   5.459   2.098   1.392  0.2261 -0.1972  0.2832
 1040SOL    HW2 3932   5.450   2.150   1.313 -0.3267  1.5533  1.4361
 1040SOL    HW3 3933   5.371   2.095   1.430 -0.3309 -4.0050 -0.8686
 1040SOL    MW4 3934   5.446   2.104   1.387 -0.0526  0.0005 -0.0102
 1041SOL     OW 3935   1.568   1.999   5.913  0.3185 -0.1476 -0.2660
 1041SOL    HW2 3936   1.542   2.088   5.889  1.6034  0.3552  0.1603
 1041SOL    HW3 3937   1.485   1.950   5.916 -0.6318  1.4600  1.2810
 1041SOL    MW4 3938   1.553   2.004   5.910  0.2993 -0.3354  0.4859
 1042SOL     OW 3939   0.385   2.015   2.507 -0.0022 -0.2595  0.8083
 1042SOL    HW2 3940   0.405   1.934   2.460  2.0993 -1.0619  2.8337
 1042SOL    HW3 3941   0.442   2.081   2.467 -1.2704  0.1284 -0.4381
 1042SOL    MW4 3942   0.395   2.013   2.496 -0.0065  0.1384  0.1298
 1043SOL     OW 3943   1.725   5.966   1.407 -0.5390  0.1450 -0.2653
 1043SOL    HW2 3944   1.666   5.905   1.451  0.2800  0.0932  0.7978
 1043SOL    HW3 3945   1.810   5.923   1.409  0.0608  1.3055  0.5014
 1043SOL    MW4 3946   1.729   5.952   1.413  0.0745 -0.0092 -0.3533
 1044SOL     OW 3947   3.063   3.990   1.676 -0.2659 -0.3606  0.2046
 1044SOL    HW2 3948   3.051   3.923   1.744  0.2958  0.3452  1.0155
 1044SOL    HW3 3949   3.071   4.072   1.724  0.5155  0.1098 -0.6972
 1044SOL    MW4 3950   3.062   3.992   1.691 -0.7092  0.0499 -0.2716
 1045SOL     OW 3951   1.893   3.679   1.512 -0.5160  0.3464 -0.9995
 1045SOL    HW2 3952   1.808   3.654   1.548 -0.8995  1.4622 -1.0741
 1045SOL    HW3 3953   1.952   3.680   1.587 -0.5065 -0.6603 -0.9850
 1045SOL    MW4 3954   1.890   3.676   1.527 -0.7200 -0.0617  0.6283
 1046SOL     OW 3955   5.728   3.089   1.695  0.3933  0.3985 -0.1529
 1046SOL    HW2 3956   5.673   3.163   1.668  0.4718  1.3511  2.0856
 1046SOL    HW3 3957   5.764   3.055   1.613 -2.4624  0.5632 -1.5773
 1046SOL    MW4 3958   5.726   3.094   1.681 -0.7086  0.3437  0.2664
 1047SOL     OW 3959   6.413   3.227   2.666  0.6682  0.4100 -0.3152
 1047SOL    HW2 3960   6.427   3.137   2.636 -0.3909 -0.0819  0.6111
 1047SOL    HW3 3961   6.334   3.255   2.619  1.6821  1.3249 -1.5477
 1047SOL    MW4 3962   6.404   3.219   2.656  0.2955 -0.1316  0.1865
 1048SOL     OW 3963   2.789   4.246   5.840 -0.3050  0.3042  0.1222
 1048SOL    HW2 3964   2.850   4.207   5.777 -1.7989 -0.1634 -1.0936
 1048SOL    HW3 3965   2.755   4.172   5.890 -0.0705  0.5316  0.6231
 1048SOL    MW4 3966   2.792   4.231   5.838  0.1497 -0.0955  0.2358
 1049SOL     OW 3967   1.416   1.787   1.236  0.1211  0.2398 -0.0069
 1049SOL    HW2 3968   1.493   1.749   1.278 -0.6984 -0.7100  0.6788
 1049SOL    HW3 3969   1.434   1.779   1.142  0.7272 -0.2291  0.1407
 1049SOL    MW4 3970   1.429   1.781   1.229  1.1907  0.3804  0.8260
 1050SOL     OW 3971   3.816   3.151   1.973 -0.2805 -0.1372  0.0317
 1050SOL    HW2 3972   3.731   3.173   2.012 -0.6876  0.3195 -1.0607
 1050SOL    HW3 3973   3.810   3.058   1.953 -0.8841  0.0840 -0.8654
 1050SOL    MW4 3974   3.804   3.142   1.976 -0.2186 -0.6175  0.0062
 1051SOL     OW 3975   0.556   0.019   4.774 -0.1969  0.1666  0.0752
 1051SOL    HW2 3976   0.575  -0.006   4.683 -1.6142 -2.1053  0.3257
 1051SOL    HW3 3977   0.480  -0.033   4.797  0.4183  0.3464  2.7526
 1051SOL    MW4 3978   0.548   0.009   4.765 -0.3846 -0.0003  0.0357
 1052SOL     OW 3979   0.791   1.180   1.011  0.1983  0.2244  0.1337
 1052SOL    HW2 3980   0.825   1.233   1.083  1.7218 -1.3234  0.6178
 1052SOL    HW3 3981   0.735   1.240   0.961  1.0473  1.9874  1.2186
 1052SOL    MW4 3982   0.788   1.195   1.014 -0.4738  0.0288 -0.4641
 1053SOL     OW 3983   6.181   1.786   1.390 -0.7997 -0.0607 -0.5046
 1053SOL    HW2 3984   6.229   1.706   1.367 -1.0744 -0.1287 -0.8592
 1053SOL    HW3 3985   6.219   1.854   1.333 -0.5866  0.0541 -0.2251
 1053SOL    MW4 3986   6.193   1.784   1.379  0.7103  0.2528 -0.3012
 1054SOL     OW 3987   2.712   6.331   2.092  0.9501 -0.2947  0.4000
 1054SOL    HW2 3988   2.733   6.255   2.038 -1.0958 -0.1554 -0.6729
 1054SOL    HW3 3989   2.785   6.391   2.078  0.7711 -0.5188 -1.7433
 1054SOL    MW4 3990   2.724   6.329   2.083  0.1531  0.0566 -0.0709
 1055SOL     OW 3991   4.787   3.876   2.981  0.2187  0.5991 -0.6287
 1055SOL    HW2 3992   4.789   3.965   3.017 -1.5196  0.2063  0.5962
 1055SOL    HW3 3993   4.868   3.868   2.932  1.0273  2.4119  0.3127
 1055SOL    MW4 3994   4.798   3.887   2.980 -0.2657  0.0834  0.0836
 1056SOL     OW 3995   3.810   2.197   4.679 -0.2867  0.2907  0.1598
 1056SOL    HW2 3996   3.889   2.172   4.632 -0.3990  0.1706  0.0331
 1056SOL    HW3 3997   3.743   2.208   4.611 -0.8604 -1.4242  0.3950
 1056SOL    MW4 3998   3.811   2.195   4.664  0.1798  0.4430 -0.3059
 1057SOL     OW 3999   4.476   4.055   1.859  0.0410 -0.5089 -0.3354
 1057SOL    HW2 4000   4.468   4.037   1.766 -0.0894 -0.7371 -0.2834
 1057SOL    HW3 4001   4.413   3.994   1.900 -1.7292  1.2505 -0.2712
 1057SOL    MW4 4002   4.466   4.044   1.852 -0.0190  0.4984 -0.1184
 1058SOL     OW 4003   1.146   0.866   5.162 -0.2278  0.0724  0.1652
 1058SOL    HW2 4004   1.203   0.794   5.187  1.4594  0.8793 -1.1095
 1058SOL    HW3 4005   1.202   0.944   5.167 -0.7668  0.7414 -2.3659
 1058SOL    MW4 4006   1.161   0.867   5.166 -0.0607  0.3394 -0.8320
 1059SOL     OW 4007   4.929   5.009   5.542 -0.2383 -0.6052  0.2910
 1059SOL    HW2 4008   4.910   4.990   5.450  0.1029  0.2947  0.0312
 1059SOL    HW3 4009   4.848   4.985   5.588 -0.6416 -0.4432 -0.3167
 1059SOL    MW4 4010   4.916   5.003   5.536 -0.3420  0.2292  0.4409
 1060SOL     OW 4011   0.755   1.505   5.180  0.0425  0.0330  0.0114
 1060SOL    HW2 4012   0.819   1.474   5.245  0.2864 -0.7574 -0.5876
 1060SOL    HW3 4013   0.672   1.466   5.208 -0.0984  0.6562  0.5051
 1060SOL    MW4 4014   0.753   1.496   5.193 -0.1291  0.3024  0.4678
 1061SOL     OW 4015   5.115   5.568   3.869  0.2402 -0.0819 -0.2720
 1061SOL    HW2 4016   5.130   5.571   3.775  0.9264 -0.7442 -0.1988
 1061SOL    HW3 4017   5.176   5.634   3.905 -0.6323  0.7824 -0.3470
 1061SOL    MW4 4018   5.125   5.577   3.861 -0.6163 -0.2482 -0.4441
 1062SOL     OW 4019   3.606   3.310   5.019  0.0427 -0.0734  0.2713
 1062SOL    HW2 4020   3.521   3.317   4.977 -0.0676 -0.9663  0.3300
 1062SOL    HW3 4021   3.624   3.398   5.052 -1.1185 -0.0093  0.7657
 1062SOL    MW4 4022   3.598   3.322   5.018 -0.1127  0.5470  0.6496
 1063SOL     OW 4023   5.554   3.275   1.575  0.3479 -0.1915  0.4628
 1063SOL    HW2 4024   5.578   3.259   1.484 -0.2718  1.2691  0.0040
 1063SOL    HW3 4025   5.603   3.354   1.598 -0.3477  0.0788  1.0362
 1063SOL    MW4 4026   5.564   3.283   1.566 -0.0013  0.0455 -0.4965
 1064SOL     OW 4027   4.899   2.485   1.143 -0.1363 -0.2299 -0.1937
 1064SOL    HW2 4028   4.986   2.522   1.124 -0.7693  0.9432 -0.9196
 1064SOL    HW3 4029   4.888   2.415   1.079  0.8238 -1.3186  0.7927
 1064SOL    MW4 4030   4.909   2.481   1.132 -0.5729 -0.6264  0.9025
 1065SOL     OW 4031   2.739   1.621   5.094  0.4042 -0.1211  0.5009
 1065SOL    HW2 4032   2.660   1.576   5.064 -0.1757  1.1008  0.1096
 1065SOL    HW3 4033   2.714   1.713   5.095  1.5115  0.1887  1.3919
 1065SOL    MW4 4034   2.725   1.627   5.090 -0.3728  0.0772  0.2017
 1066SOL     OW 4035   2.100   6.138   1.933 -0.1940 -0.1450  0.2599
 1066SOL    HW2 4036   2.029   6.142   1.868 -0.5339  0.1567  0.6415
 1066SOL    HW3 4037   2.065   6.186   2.009  0.8024  0.8664  0.0962
 1066SOL    MW4 4038   2.086   6.145   1.935 -0.5533  0.1155  0.4408
 1067SOL     OW 4039   1.656   0.313   5.804  0.8685  0.0839  0.1621
 1067SOL    HW2 4040   1.570   0.288   5.770  0.5984  0.4105  0.5953
 1067SOL    HW3 4041   1.688   0.379   5.742  0.1076  1.1366  0.8539
 1067SOL    MW4 4042   1.649   0.319   5.791 -0.0680 -0.0793 -0.3403
 1068SOL     OW 4043   4.488   2.847   1.239  0.0204 -0.1254 -0.2255
 1068SOL    HW2 4044   4.568   2.817   1.196  0.8944 -2.2939  2.5836
 1068SOL    HW3 4045   4.417   2.804   1.193  0.9586 -2.9181  0.7223
 1068SOL    MW4 4046   4.489   2.838   1.227 -0.9141  0.3288 -0.1091
 1069SOL     OW 4047   4.754   2.416   3.403 -0.1470 -0.4849  0.1388
 1069SOL    HW2 4048   4.795   2.334   3.375 -1.3502 -0.7472 -0.9331
 1069SOL    HW3 4049   4.675   2.389   3.448 -1.8193  0.0694 -2.2834
 1069SOL    MW4 4050   4.749   2.402   3.405 -0.3139  0.0583 -0.3823
 1070SOL     OW 4051   1.739   3.787   3.624  0.1123 -0.2193 -0.3316
 1070SOL    HW2 4052   1.751   3.717   3.560  0.0285 -1.3471  0.8465
 1070SOL    HW3 4053   1.814   3.778   3.683  0.0129  0.5823 -0.0758
 1070SOL    MW4 4054   1.751   3.777   3.623  0.2651  0.6030 -0.2976
 1071SOL     OW 4055   0.341   1.242   1.360 -0.5614  0.2540  0.3763
 1071SOL    HW2 4056   0.275   1.175   1.376  0.6806 -1.0313  0.2877
 1071SOL    HW3 4057   0.313   1.285   1.279 -0.5512 -1.2588 -0.4691
 1071SOL    MW4 4058   0.329   1.239   1.351  0.1403  0.2301 -0.5229
 1072SOL     OW 4059   3.816   2.215   3.021  0.1418 -0.0197 -0.0816
 1072SOL    HW2 4060   3.762   2.139   2.999 -0.7664  0.8565 -0.9910
 1072SOL    HW3 4061   3.838   2.254   2.936  2.0449 -0.2114  0.2607
 1072SOL    MW4 4062   3.812   2.210   3.007  0.1135 -0.5667  0.6996
 1073SOL     OW 4063   5.810   0.326   5.111  0.4211 -0.1361 -0.0398
 1073SOL    HW2 4064   5.880   0.386   5.138 -0.6226  1.2302 -0.2272
 1073SOL    HW3 4065   5.771   0.369   5.035 -1.8235  0.0966  1.1891
 1073SOL    MW4 4066   5.814   0.340   5.104  0.0506  0.5862 -0.3272
 1074SOL     OW 4067   3.630   4.253   1.491  0.1642  0.7960 -0.0117
 1074SOL    HW2 4068   3.717   4.259   1.529  0.0048 -1.4811  0.9176
 1074SOL    HW3 4069   3.644   4.221   1.402  0.2841 -0.9100  0.5791
 1074SOL    MW4 4070   3.643   4.250   1.484  0.2446  0.5227  0.3167
 1075SOL     OW 4071   0.871   2.789   0.033  0.4770  0.2423 -0.0517
 1075SOL    HW2 4072   0.816   2.867   0.033  1.3143  0.8403  0.0656
 1075SOL    HW3 4073   0.944   2.811  -0.024  0.6337 -0.5297 -0.1642
 1075SOL    MW4 4074   0.873   2.802   0.025 -0.1244  0.5466  0.4366
 1076SOL     OW 4075   5.685   5.662   2.740  0.6437 -0.5517 -0.3480
 1076SOL    HW2 4076   5.635   5.626   2.814  0.9068  0.5458  0.3813
 1076SOL    HW3 4077   5.758   5.708   2.781 -0.2308  1.6938 -1.1519
 1076SOL    MW4 4078   5.688   5.663   2.755  0.0993 -0.0903 -0.4954
 1077SOL     OW 4079   3.741   1.919   5.862 -0.2687  0.1094  0.2910
 1077SOL    HW2 4080   3.764   1.913   5.955  1.0362  3.3154  0.2757
 1077SOL    HW3 4081   3.677   1.990   5.857  0.0659  0.3366 -1.3269
 1077SOL    MW4 4082   3.735   1.927   5.874  0.3352 -0.0503  0.0648
 1078SOL     OW 4083   5.118   3.110   4.768  0.3244  0.0451 -0.1889
 1078SOL    HW2 4084   5.201   3.063   4.758  0.6314  0.6767 -0.7393
 1078SOL    HW3 4085   5.120   3.177   4.699 -1.2873 -0.8561 -1.1658
 1078SOL    MW4 4086   5.129   3.113   4.757  0.7791  0.0960 -0.1349
 1079SOL     OW 4087   0.255   1.042   5.181 -0.3462 -0.6844  0.8616
 1079SOL    HW2 4088   0.255   1.116   5.241 -1.4196  1.6105 -1.7601
 1079SOL    HW3 4089   0.163   1.028   5.159 -0.2617 -3.3347  1.7623
 1079SOL    MW4 4090   0.243   1.050   5.186  0.1809 -0.0129 -0.4877
 1080SOL     OW 4091   4.273   4.961   5.444  0.1619  0.1483 -0.6601
 1080SOL    HW2 4092   4.319   4.975   5.362  1.4315 -1.5762 -0.3052
 1080SOL    HW3 4093   4.209   4.893   5.425 -2.5158  2.5880 -1.1781
 1080SOL    MW4 4094   4.270   4.954   5.431 -0.0935 -0.3382  0.5953
 1081SOL     OW 4095   2.038   4.270   3.992 -0.2246  0.2039  0.1832
 1081SOL    HW2 4096   1.979   4.342   4.014  2.2187  3.0999 -1.7775
 1081SOL    HW3 4097   2.025   4.256   3.899  2.0010  0.9523 -0.3212
 1081SOL    MW4 4098   2.029   4.278   3.983 -0.7054  0.3367  0.2033
 1082SOL     OW 4099   0.457   3.641   5.340 -0.6419 -0.9575 -0.0880
 1082SOL    HW2 4100   0.394   3.710   5.319  0.9327  0.2696 -0.9594
 1082SOL    HW3 4101   0.481   3.657   5.431  0.3607  0.2325 -0.5315
 1082SOL    MW4 4102   0.452   3.652   5.349  0.4582  0.1125 -0.4076
 1083SOL     OW 4103   3.327   0.223   1.113  0.0398 -0.3550 -0.7428
 1083SOL    HW2 4104   3.379   0.304   1.116 -1.1941  0.4811 -0.8348
 1083SOL    HW3 4105   3.391   0.154   1.097  0.9846  0.7677 -2.1189
 1083SOL    MW4 4106   3.342   0.225   1.112  0.5640  1.0614 -0.5162
 1084SOL     OW 4107   0.709   1.484   4.656 -0.4609 -0.0556  0.1350
 1084SOL    HW2 4108   0.767   1.410   4.638 -1.1832 -0.6950  0.4018
 1084SOL    HW3 4109   0.624   1.444   4.676 -1.2024  0.8839 -0.9732
 1084SOL    MW4 4110   0.705   1.469   4.656  0.2658  0.1115 -0.4096
 1085SOL     OW 4111   1.933   5.389   2.155 -0.5725  0.6332 -0.1304
 1085SOL    HW2 4112   1.895   5.416   2.238 -1.4098  0.4003 -0.4231
 1085SOL    HW3 4113   1.983   5.310   2.175 -0.6145  0.6865  0.1803
 1085SOL    MW4 4114   1.935   5.382   2.168  0.1013 -0.1217 -0.1781
 1086SOL     OW 4115   5.324   3.228   3.862  0.1411 -0.4148  0.2475
 1086SOL    HW2 4116   5.312   3.146   3.909  0.3015 -1.1177 -0.9073
 1086SOL    HW3 4117   5.340   3.202   3.771  1.3616  0.8376  0.0716
 1086SOL    MW4 4118   5.324   3.214   3.856 -0.2383 -0.0085  0.2052
 1087SOL     OW 4119   5.382   3.000   1.915 -0.0273 -0.5907 -0.4810
 1087SOL    HW2 4120   5.342   3.019   1.830 -0.6100 -0.1359 -0.1130
 1087SOL    HW3 4121   5.474   2.983   1.895 -0.3270 -1.3191 -1.3023
 1087SOL    MW4 4122   5.389   3.000   1.901  0.1197  0.6335 -0.0755
 1088SOL     OW 4123   0.821   6.198   3.794 -0.5156  0.4178 -0.0765
 1088SOL    HW2 4124   0.741   6.147   3.801 -0.0236 -0.5406 -1.1358
 1088SOL    HW3 4125   0.841   6.199   3.700  0.3488  1.2157  0.0930
 1088SOL    MW4 4126   0.813   6.192   3.782 -0.2886 -0.1954 -0.4903
 1089SOL     OW 4127   4.302   4.170   3.639  0.2806 -0.7027  0.0952
 1089SOL    HW2 4128   4.381   4.125   3.671  0.1447 -0.9709  0.0617
 1089SOL    HW3 4129   4.272   4.116   3.566 -1.1324 -1.8016  1.4241
 1089SOL    MW4 4130   4.309   4.157   3.634  0.2961 -0.1258 -0.3522
 1090SOL     OW 4131   3.628   4.464   5.946  0.0108 -0.1295  0.1508
 1090SOL    HW2 4132   3.712   4.506   5.928  0.2944 -0.4606  0.6741
 1090SOL    HW3 4133   3.612   4.480   6.039 -0.1969 -0.6046  0.2025
 1090SOL    MW4 4134   3.637   4.471   5.956 -0.2391  1.0738 -0.8501
 1091SOL     OW 4135   3.983   4.939   2.588  0.4587 -0.4689 -0.2459
 1091SOL    HW2 4136   3.925   4.881   2.637  0.4131  0.5802  1.0104
 1091SOL    HW3 4137   4.054   4.959   2.649  2.7927 -2.5338 -2.0573
 1091SOL    MW4 4138   3.985   4.934   2.602  0.6701  0.2941 -0.1544
 1092SOL     OW 4139   2.846   4.358   6.085 -0.5824  0.2461  0.0103
 1092SOL    HW2 4140   2.935   4.331   6.108 -1.9231 -3.0763  2.1135
 1092SOL    HW3 4141   2.835   4.329   5.995  0.1916 -0.1431  0.0319
 1092SOL    MW4 4142   2.857   4.351   6.076 -0.1019  0.1154  0.2290
 1093SOL     OW 4143   2.828   1.848   6.244  0.0261  0.7788 -0.4924
 1093SOL    HW2 4144   2.885   1.795   6.188 -0.6977  0.9554 -1.4229
 1093SOL    HW3 4145   2.862   1.835   6.332 -1.0216 -2.4649 -0.4454
 1093SOL    MW4 4146   2.840   1.840   6.248 -0.0689 -0.0769  0.0922
 1094SOL     OW 4147   5.726   2.065   4.168  0.8885  0.9105 -0.6627
 1094SOL    HW2 4148   5.720   2.106   4.255  0.4595  1.2791 -0.8582
 1094SOL    HW3 4149   5.719   1.971   4.185  0.5183  0.9961 -0.3147
 1094SOL    MW4 4150   5.724   2.058   4.182 -0.4153 -0.1161  0.9545
 1095SOL     OW 4151   2.942   5.093   3.371  0.1339  0.1786 -0.0836
 1095SOL    HW2 4152   2.867   5.145   3.399  1.4126  1.4917  1.1101
 1095SOL    HW3 4153   2.983   5.146   3.302  1.6566  1.0357  1.3931
 1095SOL    MW4 4154   2.938   5.107   3.366 -0.2652 -0.0040  0.1146
 1096SOL     OW 4155   1.550   4.659   2.663 -0.0454  0.3724  0.0174
 1096SOL    HW2 4156   1.457   4.681   2.669 -0.4799 -1.0471 -1.0529
 1096SOL    HW3 4157   1.590   4.737   2.623 -1.0542  0.3714 -1.0506
 1096SOL    MW4 4158   1.543   4.672   2.658 -0.2393 -0.1061 -0.2386
 1097SOL     OW 4159   1.465   1.532   3.934  0.1727  0.3788 -0.2120
 1097SOL    HW2 4160   1.508   1.503   4.015 -0.0762 -1.2556 -0.6334
 1097SOL    HW3 4161   1.523   1.599   3.899  1.5471 -0.5974  0.0955
 1097SOL    MW4 4162   1.478   1.537   3.940 -0.1626  0.3860 -0.4597
 1098SOL     OW 4163   4.792   0.414   4.858 -1.0815  0.1773  0.1886
 1098SOL    HW2 4164   4.720   0.358   4.830 -2.1084  1.2218  0.6599
 1098SOL    HW3 4165   4.808   0.391   4.950 -0.6979 -0.1561  0.0436
 1098SOL    MW4 4166   4.785   0.404   4.866 -0.5626 -0.0544 -1.1011
 1099SOL     OW 4167   0.941   6.060   2.472 -0.4178 -0.0453  0.1779
 1099SOL    HW2 4168   0.910   6.003   2.543  2.5658 -0.5077  1.2520
 1099SOL    HW3 4169   0.965   6.142   2.517  0.4042  0.0797 -0.4703
 1099SOL    MW4 4170   0.940   6.064   2.487 -0.4446  0.1674  0.1627
 1100SOL     OW 4171   5.913   4.668   2.036 -0.0684  0.3812 -0.0554
 1100SOL    HW2 4172   5.855   4.727   1.988  0.1263  0.8677  0.3051
 1100SOL    HW3 4173   5.855   4.618   2.094 -0.5076 -1.2296 -1.7738
 1100SOL    MW4 4174   5.898   4.669   2.037  0.1299 -0.1181  0.8121
 1101SOL     OW 4175   1.868   0.489   4.936  0.0518 -0.2286 -0.0432
 1101SOL    HW2 4176   1.872   0.539   5.018 -1.8189 -0.6591  0.3493
 1101SOL    HW3 4177   1.831   0.405   4.961 -0.4246 -0.4102 -1.3125
 1101SOL    MW4 4178   1.863   0.485   4.950  0.3643 -0.1123  0.0826
 1102SOL     OW 4179   1.164   0.348   4.344  0.1955  0.0828 -0.1199
 1102SOL    HW2 4180   1.112   0.407   4.399  0.7674  0.3905  0.1011
 1102SOL    HW3 4181   1.153   0.381   4.255 -0.1089  0.0537 -0.0933
 1102SOL    MW4 4182   1.156   0.360   4.340  0.3071  0.7276  0.1641
 1103SOL     OW 4183   2.961   5.179   6.205 -0.1415  0.6985 -0.1706
 1103SOL    HW2 4184   2.976   5.271   6.183  0.7669  0.7679  0.6746
 1103SOL    HW3 4185   2.982   5.131   6.125 -5.0053  1.4367 -2.2454
 1103SOL    MW4 4186   2.965   5.185   6.192 -0.2876  0.5043 -0.4294
 1104SOL     OW 4187   1.307   6.151   6.114 -0.1035 -0.4247 -0.6089
 1104SOL    HW2 4188   1.250   6.228   6.119 -0.9389 -1.0911  1.0763
 1104SOL    HW3 4189   1.395   6.185   6.130 -0.2167  0.4175 -1.7047
 1104SOL    MW4 4190   1.311   6.166   6.117 -0.7162 -0.2749 -0.0849
 1105SOL     OW 4191   4.178   3.541   4.111  0.3793 -0.1834 -0.0481
 1105SOL    HW2 4192   4.267   3.564   4.138  0.3366 -0.1433  0.0596
 1105SOL    HW3 4193   4.126   3.618   4.134  0.2300 -0.4012  0.3465
 1105SOL    MW4 4194   4.183   3.554   4.117  0.0710 -0.0762 -0.1980
 1106SOL     OW 4195   6.299   4.868   4.405  0.1805 -0.6456  0.2108
 1106SOL    HW2 4196   6.282   4.778   4.379  1.1486 -0.3517 -1.5718
 1106SOL    HW3 4197   6.394   4.876   4.405  0.2186  1.3447 -3.6217
 1106SOL    MW4 4198   6.309   4.857   4.402 -0.4319  0.3881  0.6712
 1107SOL     OW 4199   0.534   6.024   5.815  0.0297  0.5111 -0.4368
 1107SOL    HW2 4200   0.588   5.971   5.873 -0.9447  0.9996  0.9666
 1107SOL    HW3 4201   0.596   6.081   5.769  0.7166  1.3468  1.4332
 1107SOL    MW4 4202   0.549   6.025   5.816 -0.1272 -0.2644  0.3854
 1108SOL     OW 4203   5.071   0.579   0.438 -0.2461  0.4798 -0.1658
 1108SOL    HW2 4204   5.071   0.486   0.412 -1.5354  0.4032  0.0564
 1108SOL    HW3 4205   5.092   0.626   0.357 -0.3179  0.0374 -0.4485
 1108SOL    MW4 4206   5.074   0.573   0.424 -0.7734 -0.0544 -0.1768
 1109SOL     OW 4207   6.021   0.239   1.173 -0.0664 -0.4950  0.5410
 1109SOL    HW2 4208   6.042   0.332   1.185  1.0908 -0.6227 -0.3047
 1109SOL    HW3 4209   6.106   0.196   1.175 -0.1208 -1.0761 -3.0977
 1109SOL    MW4 4210   6.035   0.246   1.175  0.0060  0.0026 -0.3563
 1110SOL     OW 4211   4.059   4.924   5.155 -0.4302 -0.0363  0.0894
 1110SOL    HW2 4212   4.108   5.004   5.173  0.0587 -0.1446 -0.7086
 1110SOL    HW3 4213   4.070   4.871   5.234  0.3857  0.1267  0.0947
 1110SOL    MW4 4214   4.067   4.927   5.168 -0.6944 -0.3638 -0.1407
 1111SOL     OW 4215   3.154   2.454   2.628 -0.2625 -0.6415  0.2603
 1111SOL    HW2 4216   3.168   2.389   2.559  0.0851  0.5824 -0.8560
 1111SOL    HW3 4217   3.238   2.459   2.674 -0.2648 -0.9092  0.2950
 1111SOL    MW4 4218   3.167   2.446   2.625  0.7652  0.0010  0.0491
 1112SOL     OW 4219   2.542   0.264   0.268  0.0079  0.6586 -0.6072
 1112SOL    HW2 4220   2.556   0.201   0.196  0.0295 -1.7393  1.3717
 1112SOL    HW3 4221   2.455   0.243   0.301  0.9047  0.0820  1.5229
 1112SOL    MW4 4222   2.533   0.253   0.263 -0.5604 -0.1180  0.4844
 1113SOL     OW 4223   6.112   0.025   1.572 -0.1096 -0.1160  0.8759
 1113SOL    HW2 4224   6.204   0.048   1.562  0.0502  0.3604  2.9649
 1113SOL    HW3 4225   6.066   0.109   1.572 -0.7838 -0.4057 -1.6281
 1113SOL    MW4 4226   6.118   0.039   1.571 -0.6327 -0.4643 -0.4721
 1114SOL     OW 4227   5.828   2.413   0.918 -0.7340 -0.4084  0.3692
 1114SOL    HW2 4228   5.754   2.460   0.879 -0.2091 -0.2337 -0.4283
 1114SOL    HW3 4229   5.841   2.337   0.860  0.2029 -0.0203  0.0651
 1114SOL    MW4 4230   5.820   2.409   0.905 -0.6084 -0.1020 -0.1803
 1115SOL     OW 4231   3.977   1.171   2.739 -0.2652 -0.0685 -0.2500
 1115SOL    HW2 4232   3.940   1.123   2.665  0.3017  0.6332 -0.9992
 1115SOL    HW3 4233   4.067   1.140   2.744  0.3047  1.3434 -1.1426
 1115SOL    MW4 4234   3.984   1.160   2.730 -0.1944 -0.2351 -0.3059
 1116SOL     OW 4235   2.091   2.561   0.064  0.1093 -0.3281  0.0001
 1116SOL    HW2 4236   2.001   2.545   0.093  0.3377 -0.2632  0.7736
 1116SOL    HW3 4237   2.145   2.513   0.126  0.6436  0.2961  0.0290
 1116SOL    MW4 4238   2.086   2.552   0.076  0.0091 -0.1039  0.2104
 1117SOL     OW 4239   3.582   5.618   5.502 -0.6439  0.2176 -0.2561
 1117SOL    HW2 4240   3.614   5.620   5.592  0.4046 -0.1819 -0.6060
 1117SOL    HW3 4241   3.510   5.555   5.504 -0.4651  0.0223  0.2491
 1117SOL    MW4 4242   3.577   5.610   5.514  0.3494 -0.2023 -0.3395
 1118SOL     OW 4243   0.910   3.248   2.758  0.4118 -0.3729 -0.1330
 1118SOL    HW2 4244   0.917   3.333   2.715 -0.5377 -0.6727 -0.9376
 1118SOL    HW3 4245   0.995   3.207   2.742  0.8512  0.3875  0.2000
 1118SOL    MW4 4246   0.922   3.254   2.750 -0.0235 -0.1253 -0.2832
 1119SOL     OW 4247   3.122   2.618   4.626  0.1107 -0.8444 -0.3021
 1119SOL    HW2 4248   3.037   2.660   4.613  0.1275 -0.3064  1.1472
 1119SOL    HW3 4249   3.170   2.678   4.683  0.6518 -2.1461  0.6703
 1119SOL    MW4 4250   3.117   2.631   4.632  0.3540 -0.4200 -0.6608
 1120SOL     OW 4251   3.057   1.747   3.252 -0.4159  0.2328 -0.0033
 1120SOL    HW2 4252   3.093   1.834   3.270 -2.5114  0.7580  2.1371
 1120SOL    HW3 4253   2.972   1.746   3.296 -1.7704 -1.9360 -2.3869
 1120SOL    MW4 4254   3.051   1.758   3.260 -0.5104 -0.0730  0.1984
 1121SOL     OW 4255   6.122   5.401   3.325  0.0483  0.0806 -0.1781
 1121SOL    HW2 4256   6.159   5.451   3.253  0.7983  0.2049  0.2802
 1121SOL    HW3 4257   6.114   5.312   3.291 -0.0386  0.2340 -0.5602
 1121SOL    MW4 4258   6.126   5.396   3.311  0.3498  0.0360 -0.3075
 1122SOL     OW 4259   2.986   5.489   0.081  0.1454  0.8124 -0.1351
 1122SOL    HW2 4260   3.075   5.454   0.083  0.4965  1.5787  2.6300
 1122SOL    HW3 4261   2.929   5.412   0.086  0.7073  0.4012 -0.0382
 1122SOL    MW4 4262   2.990   5.474   0.082  0.2120  0.0592 -0.0262
 1123SOL     OW 4263   2.415   5.944   5.453 -0.2270 -0.1428  0.8259
 1123SOL    HW2 4264   2.363   6.024   5.437 -0.8171 -0.7076 -0.1733
 1123SOL    HW3 4265   2.376   5.879   5.395  0.5777 -1.0288  1.2690
 1123SOL    MW4 4266   2.403   5.946   5.444  0.0442  0.7390 -0.0584
 1124SOL     OW 4267   4.363   6.296   1.448 -0.5723 -0.2427 -0.4780
 1124SOL    HW2 4268   4.391   6.381   1.414 -2.4748 -0.2766 -2.2436
 1124SOL    HW3 4269   4.275   6.311   1.482 -0.4807 -1.2731  0.2755
 1124SOL    MW4 4270   4.355   6.310   1.448  0.6417 -0.6177 -0.2811
 1125SOL     OW 4271   4.712   6.180   3.239 -0.7520  0.5023  0.4014
 1125SOL    HW2 4272   4.723   6.212   3.329 -1.9424  1.0077  0.3868
 1125SOL    HW3 4273   4.787   6.217   3.191 -1.3678  2.1886  0.6879
 1125SOL    MW4 4274   4.724   6.189   3.245  0.0945  0.8696  0.2044
 1126SOL     OW 4275   4.781   1.603   4.708  0.0469 -0.4638  0.2894
 1126SOL    HW2 4276   4.751   1.599   4.617  2.0736 -2.3467 -0.3817
 1126SOL    HW3 4277   4.701   1.595   4.760 -1.2592  1.4951 -1.2486
 1126SOL    MW4 4278   4.767   1.602   4.703 -0.0347  0.0207  0.1538
 1127SOL     OW 4279   4.281   2.912   6.329  0.5704  0.0980  0.3796
 1127SOL    HW2 4280   4.292   2.855   6.253  0.1845  0.0461  0.3591
 1127SOL    HW3 4281   4.370   2.938   6.353  0.8779 -1.6033  1.2334
 1127SOL    MW4 4282   4.294   2.908   6.322  0.1473 -0.2380  0.0352
 1128SOL     OW 4283   0.507   2.385   3.475 -0.0194  0.1909 -0.1771
 1128SOL    HW2 4284   0.431   2.399   3.530 -0.4587 -2.2441 -0.0672
 1128SOL    HW3 4285   0.558   2.319   3.520  0.6126 -0.4301 -1.7227
 1128SOL    MW4 4286   0.504   2.378   3.488  0.1879 -0.0400 -0.2054
 1129SOL     OW 4287   5.767   1.724   2.948  0.7139  0.5214 -0.5144
 1129SOL    HW2 4288   5.733   1.805   2.987  0.1299  0.8860 -1.7356
 1129SOL    HW3 4289   5.822   1.753   2.876  1.8043 -0.1408  0.0304
 1129SOL    MW4 4290   5.769   1.738   2.944 -0.7598 -0.0153  0.3531
 1130SOL     OW 4291   2.842   5.442   3.256 -0.0258 -0.1873 -0.3509
 1130SOL    HW2 4292   2.894   5.390   3.194 -0.1066 -0.3164 -0.3111
 1130SOL    HW3 4293   2.829   5.526   3.212  0.5491 -0.0107 -0.2044
 1130SOL    MW4 4294   2.847   5.446   3.242  0.5326 -0.3063 -0.2710
 1131SOL     OW 4295   2.179   0.020   2.914  0.2119 -0.0582  0.6368
 1131SOL    HW2 4296   2.236   0.067   2.853  1.9328 -0.6833  1.7220
 1131SOL    HW3 4297   2.118   0.087   2.946 -0.9020  0.2496 -1.8782
 1131SOL    MW4 4298   2.178   0.035   2.910  0.2665 -0.3185 -0.0136
 1132SOL     OW 4299   1.063   0.091   0.892  0.1578 -0.5690  0.2275
 1132SOL    HW2 4300   1.089   0.162   0.951  0.0320  0.1399 -0.5610
 1132SOL    HW3 4301   1.143   0.070   0.843  0.5948 -2.0012  1.4776
 1132SOL    MW4 4302   1.077   0.097   0.893 -0.0549 -0.4741  0.2122
 1133SOL     OW 4303   1.246   4.040   0.235 -0.5992 -0.3355  0.0724
 1133SOL    HW2 4304   1.295   3.977   0.288  0.2056 -1.0935 -1.4975
 1133SOL    HW3 4305   1.290   4.040   0.151 -0.9064  1.9933 -0.1491
 1133SOL    MW4 4306   1.258   4.032   0.231 -0.0813 -0.2385  0.4837
 1134SOL     OW 4307   0.493   0.423   3.884  1.0035  0.1440 -0.1040
 1134SOL    HW2 4308   0.442   0.480   3.827  0.1303 -1.0479 -0.5563
 1134SOL    HW3 4309   0.449   0.426   3.968  0.8292 -0.0247 -0.1886
 1134SOL    MW4 4310   0.481   0.431   3.887  0.1502  0.3792 -0.1144
 1135SOL     OW 4311   5.624   2.743   5.697 -0.0458  0.2332 -0.4655
 1135SOL    HW2 4312   5.532   2.769   5.705 -0.7303 -1.2904 -2.4631
 1135SOL    HW3 4313   5.648   2.714   5.785 -1.2499  1.2641  0.2446
 1135SOL    MW4 4314   5.615   2.743   5.710  0.3361  0.1900  0.4040
 1136SOL     OW 4315   0.087   5.581   3.239  0.5509 -0.2959 -0.1540
 1136SOL    HW2 4316   0.150   5.610   3.172  2.9036  1.4185  2.5935
 1136SOL    HW3 4317   0.026   5.654   3.247  1.1712  0.1496  0.5863
 1136SOL    MW4 4318   0.087   5.594   3.231 -0.7922 -0.1098  0.3237
 1137SOL     OW 4319   6.099   1.753   1.023 -0.1712 -0.0614 -0.8182
 1137SOL    HW2 4320   6.162   1.811   1.066 -0.2833 -2.0050  2.1742
 1137SOL    HW3 4321   6.145   1.670   1.013 -1.2847 -0.6273 -1.4174
 1137SOL    MW4 4322   6.114   1.750   1.027 -0.0288  0.2455 -0.8955
 1138SOL     OW 4323   5.168   1.789   5.873 -0.5069  0.4904  0.0022
 1138SOL    HW2 4324   5.189   1.836   5.954 -0.4116  1.1463 -0.3920
 1138SOL    HW3 4325   5.196   1.849   5.803 -2.0029  0.6021 -0.5328
 1138SOL    MW4 4326   5.175   1.803   5.874  0.3502 -0.2180  0.1045
 1139SOL     OW 4327   3.178   3.411   1.056  0.7468  0.1925  0.0830
 1139SOL    HW2 4328   3.085   3.417   1.080  0.5594 -2.6788  0.3653
 1139SOL    HW3 4329   3.181   3.442   0.965 -0.5221  0.1114 -0.0036
 1139SOL    MW4 4330   3.166   3.416   1.047  0.1414 -0.2582  0.4538
 1140SOL     OW 4331   3.868   3.826   4.993 -0.5246 -0.3570 -0.3532
 1140SOL    HW2 4332   3.800   3.845   5.057  0.1151  0.8374  0.0235
 1140SOL    HW3 4333   3.950   3.847   5.039  0.1236 -1.9045 -0.7328
 1140SOL    MW4 4334   3.870   3.832   5.008 -0.2574  0.3109 -0.1597
 1141SOL     OW 4335   0.242   5.838   0.482 -0.2964 -0.1834  0.0059
 1141SOL    HW2 4336   0.288   5.880   0.409 -0.4590 -1.6736 -0.9901
 1141SOL    HW3 4337   0.150   5.857   0.465 -0.3226 -0.3959 -0.0887
 1141SOL    MW4 4338   0.236   5.846   0.470  0.2846  0.2366  0.0681
 1142SOL     OW 4339   5.113   4.865   3.821  0.3634  0.2683  0.3026
 1142SOL    HW2 4340   5.141   4.804   3.890 -0.1383 -0.1973  0.1077
 1142SOL    HW3 4341   5.151   4.829   3.741  2.6033  1.8981  0.5729
 1142SOL    MW4 4342   5.121   4.852   3.820 -0.7599 -0.1364 -0.3077
 1143SOL     OW 4343   4.946   5.112   4.159 -0.0828 -0.2451  0.1137
 1143SOL    HW2 4344   4.927   5.114   4.252  0.1278  0.6066  0.1459
 1143SOL    HW3 4345   5.032   5.154   4.151 -0.5469  0.5947 -0.5667
 1143SOL    MW4 4346   4.955   5.117   4.170 -0.4323 -0.5013 -0.3699
 1144SOL     OW 4347   0.174   0.226   3.871 -0.6233  0.0079  1.0030
 1144SOL    HW2 4348   0.085   0.261   3.877 -0.6520 -0.0752  1.0782
 1144SOL    HW3 4349   0.200   0.241   3.781 -1.0440 -0.7613  0.7444
 1144SOL    MW4 4350   0.166   0.233   3.860 -0.9327 -0.5294 -0.6071
 1145SOL     OW 4351   2.287   3.742   3.310 -0.3033  0.4822  0.5620
 1145SOL    HW2 4352   2.238   3.737   3.228 -0.9981  1.2076  0.9214
 1145SOL    HW3 4353   2.258   3.823   3.351  0.6165  0.5247  1.1639
 1145SOL    MW4 4354   2.277   3.752   3.305  0.2200 -0.3793 -0.1437
 1146SOL     OW 4355   6.222   4.457   2.989 -0.0482  0.2139 -0.3649
 1146SOL    HW2 4356   6.263   4.372   3.003  1.4477  0.6383 -1.9055
 1146SOL    HW3 4357   6.258   4.513   3.058 -0.3202 -0.1499  0.0795
 1146SOL    MW4 4358   6.232   4.454   3.000 -0.5192 -0.4295 -0.1368
 1147SOL     OW 4359   2.439   3.270   2.640 -0.6757 -1.1223  0.1873
 1147SOL    HW2 4360   2.414   3.332   2.708  0.9178  0.3700 -0.4915
 1147SOL    HW3 4361   2.356   3.242   2.601 -1.4525  1.7817 -0.4635
 1147SOL    MW4 4362   2.425   3.275   2.644  0.2509  0.2553  0.5556
 1148SOL     OW 4363   3.528   1.489   3.253  0.1735 -0.4217 -0.1143
 1148SOL    HW2 4364   3.502   1.580   3.264  0.5298 -0.3136 -0.1493
 1148SOL    HW3 4365   3.577   1.487   3.171  0.9716 -0.4634  0.3534
 1148SOL    MW4 4366   3.531   1.500   3.243  0.2548 -0.0157 -0.2658
 1149SOL     OW 4367   3.768   0.726   2.033  0.0665 -0.0451 -1.0066
 1149SOL    HW2 4368   3.797   0.793   1.972  0.9646 -1.9237 -2.7538
 1149SOL    HW3 4369   3.845   0.708   2.087  0.1564 -0.4366 -1.2664
 1149SOL    MW4 4370   3.782   0.733   2.032 -0.0084 -0.2496 -0.5074
 1150SOL     OW 4371   5.288   0.507   2.181 -0.0678 -0.2405  0.0029
 1150SOL    HW2 4372   5.337   0.562   2.242 -0.7059  0.7344 -0.3410
 1150SOL    HW3 4373   5.248   0.569   2.119  0.8249 -1.2187 -1.6185
 1150SOL    MW4 4374   5.289   0.522   2.181 -0.4389 -0.0956 -0.6876
 1151SOL     OW 4375   4.663   0.348   1.253 -0.0575  1.3791  0.0721
 1151SOL    HW2 4376   4.757   0.356   1.240  0.3416 -0.2310  1.5965
 1151SOL    HW3 4377   4.631   0.312   1.170  1.2609 -1.4250  0.6413
 1151SOL    MW4 4378   4.671   0.344   1.240 -0.0597 -1.0069 -0.1083
 1152SOL     OW 4379   0.887   3.156   1.249  0.1402 -0.3816  0.3011
 1152SOL    HW2 4380   0.922   3.160   1.338  0.5384 -0.3881  0.1434
 1152SOL    HW3 4381   0.847   3.242   1.236 -1.9172 -1.1163  1.2976
 1152SOL    MW4 4382   0.886   3.168   1.259 -0.5022  0.0244 -0.2522
 1153SOL     OW 4383   4.851   3.013   4.502 -0.1008  0.5514 -0.3050
 1153SOL    HW2 4384   4.872   2.953   4.574 -1.9301 -0.0876 -0.2376
 1153SOL    HW3 4385   4.936   3.048   4.475  0.6927  0.5847  1.9430
 1153SOL    MW4 4386   4.865   3.010   4.508 -0.3206  0.4066 -0.0103
 1154SOL     OW 4387   1.294   4.680   6.045 -0.1347 -0.0190  0.0032
 1154SOL    HW2 4388   1.300   4.598   6.095 -0.0972 -0.4036 -0.6282
 1154SOL    HW3 4389   1.383   4.696   6.015 -0.1663  0.1966  0.0203
 1154SOL    MW4 4390   1.306   4.671   6.048 -0.5613 -0.3762  0.3458
 1155SOL     OW 4391   4.519   4.653   4.587  0.1480  0.1914  0.0636
 1155SOL    HW2 4392   4.492   4.709   4.660 -0.8391 -2.5600  1.9617
 1155SOL    HW3 4393   4.577   4.588   4.626 -0.0956 -1.1471 -1.6500
 1155SOL    MW4 4394   4.523   4.652   4.602  0.1140 -0.1337  0.0064
 1156SOL     OW 4395   2.742   5.470   5.697 -1.0677  0.0521  0.0752
 1156SOL    HW2 4396   2.648   5.475   5.680 -0.9325  0.3979 -0.6325
 1156SOL    HW3 4397   2.774   5.407   5.631 -1.0934 -1.6769  1.6313
 1156SOL    MW4 4398   2.734   5.462   5.686  0.0023  0.1102  0.0288
 1157SOL     OW 4399   0.460   1.303   6.135 -0.2854  0.3481  0.3565
 1157SOL    HW2 4400   0.493   1.280   6.048  0.7724  0.7493  0.6336
 1157SOL    HW3 4401   0.376   1.258   6.142  0.3848 -1.0620 -0.2393
 1157SOL    MW4 4402   0.453   1.294   6.125 -0.1846  0.2131 -0.3948
 1158SOL     OW 4403   4.948   2.550   5.762  0.4899 -0.0033  0.2632
 1158SOL    HW2 4404   4.853   2.546   5.773  0.3205  1.0206 -0.6591
 1158SOL    HW3 4405   4.979   2.464   5.792 -0.6256 -0.0628  1.3697
 1158SOL    MW4 4406   4.940   2.538   5.768 -0.8652 -0.4285  0.1999
 1159SOL     OW 4407   0.433   6.197   2.868 -0.4955  0.4891  0.4681
 1159SOL    HW2 4408   0.455   6.137   2.939  0.5124  0.8375  0.4691
 1159SOL    HW3 4409   0.513   6.202   2.815 -0.2508  2.4075  0.9064
 1159SOL    MW4 4410   0.447   6.190   2.870  0.5078 -0.4073 -0.5190
 1160SOL     OW 4411   2.138   0.797   3.912  0.3380  0.5380  0.5871
 1160SOL    HW2 4412   2.057   0.768   3.870  1.7012 -1.1955 -1.0223
 1160SOL    HW3 4413   2.143   0.891   3.893  0.6771 -0.0719 -2.9751
 1160SOL    MW4 4414   2.128   0.806   3.904 -0.1840  0.4640  0.4731
 1161SOL     OW 4415   4.270   0.288   2.486 -0.4666  0.1315  0.2458
 1161SOL    HW2 4416   4.258   0.218   2.550  0.9206  0.9197  1.4439
 1161SOL    HW3 4417   4.204   0.353   2.509  0.0146  0.4022  0.8791
 1161SOL    MW4 4418   4.260   0.287   2.497 -0.3742 -0.4109 -0.2976
 1162SOL     OW 4419   4.804   2.971   5.119  0.6561 -0.2122 -0.1168
 1162SOL    HW2 4420   4.819   3.056   5.161  1.5578  0.0137 -0.8666
 1162SOL    HW3 4421   4.868   2.968   5.048 -1.3890 -0.2278 -2.0314
 1162SOL    MW4 4422   4.815   2.982   5.115  0.1390 -0.5189  0.7091
 1163SOL     OW 4423   0.524   2.484   0.020  0.3159  0.2192 -0.1599
 1163SOL    HW2 4424   0.514   2.574   0.049  1.7296 -0.0820  1.4638
 1163SOL    HW3 4425   0.597   2.486  -0.042  1.9217 -0.0534  1.6105
 1163SOL    MW4 4426   0.533   2.496   0.015  0.4001  0.6640 -0.3926
 1164SOL     OW 4427   4.641   0.916   4.386  0.1397 -0.2635  0.1037
 1164SOL    HW2 4428   4.596   0.905   4.469  1.4452 -0.1102  0.8615
 1164SOL    HW3 4429   4.603   0.850   4.328 -1.1223 -0.0438  0.6602
 1164SOL    MW4 4430   4.630   0.906   4.389 -0.3721  0.5582 -0.0765
 1165SOL     OW 4431   6.139   1.235   0.823 -0.1881  0.6558  0.0294
 1165SOL    HW2 4432   6.235   1.241   0.822 -0.1732  0.3992 -0.5445
 1165SOL    HW3 4433   6.113   1.257   0.734 -0.4869 -1.9983 -0.5996
 1165SOL    MW4 4434   6.148   1.239   0.811 -0.1375 -0.0654  0.1924
 1166SOL     OW 4435   0.511   3.133   5.288 -0.3162  0.0808 -0.3920
 1166SOL    HW2 4436   0.518   3.196   5.217  0.2819  1.2144  0.6447
 1166SOL    HW3 4437   0.426   3.090   5.274 -0.8884  1.3608 -0.9224
 1166SOL    MW4 4438   0.500   3.135   5.277  0.1407  0.6099 -0.1446
 1167SOL     OW 4439   0.109   1.718   3.581 -0.4385 -0.5819 -0.4366
 1167SOL    HW2 4440   0.142   1.649   3.524  0.6078 -0.4181 -0.0549
 1167SOL    HW3 4441   0.183   1.740   3.638 -0.6110  1.1317 -0.8254
 1167SOL    MW4 4442   0.123   1.712   3.581  0.3155 -0.1118 -0.5888
 1168SOL     OW 4443   4.729   6.353   4.305  0.0092 -0.2076 -0.4227
 1168SOL    HW2 4444   4.723   6.449   4.308 -0.2555 -0.2263 -0.2940
 1168SOL    HW3 4445   4.731   6.326   4.397  1.2261 -0.2665 -0.4484
 1168SOL    MW4 4446   4.728   6.362   4.318  0.3365  0.3263 -0.0498
 1169SOL     OW 4447   5.005   5.017   0.740 -0.1294 -0.1463  0.2213
 1169SOL    HW2 4448   5.059   5.068   0.680 -0.8450  0.6908  0.2739
 1169SOL    HW3 4449   5.031   4.926   0.725  1.0209  0.2058 -0.0192
 1169SOL    MW4 4450   5.016   5.012   0.730 -0.1622  0.6745 -0.0802
 1170SOL     OW 4451   0.051   1.359   3.656  0.0883  0.2380  0.4205
 1170SOL    HW2 4452   0.068   1.317   3.572 -1.8196  0.0843  0.0728
 1170SOL    HW3 4453  -0.042   1.343   3.673  0.5630 -0.2778  2.8859
 1170SOL    MW4 4454   0.041   1.352   3.647 -0.8036  0.3379  0.1042
 1171SOL     OW 4455   5.755   0.335   0.360  0.2865  0.3450  0.1955
 1171SOL    HW2 4456   5.845   0.318   0.387  0.4155  1.4106  0.4647
 1171SOL    HW3 4457   5.712   0.369   0.438  0.0565  1.2866 -0.3280
 1171SOL    MW4 4458   5.761   0.337   0.374  0.5068 -0.1876 -0.5592
 1172SOL     OW 4459   2.043   1.491   2.258  0.0498 -0.0840 -0.5404
 1172SOL    HW2 4460   2.058   1.452   2.344 -0.5546 -0.3564 -0.5514
 1172SOL    HW3 4461   2.059   1.584   2.270 -1.2049  0.0502  0.1624
 1172SOL    MW4 4462   2.047   1.498   2.271  0.0186 -0.5045  0.0046
 1173SOL     OW 4463   0.108   3.662   6.287 -0.4537 -0.0492 -0.0313
 1173SOL    HW2 4464   0.173   3.608   6.333 -0.4336 -0.1801 -0.2110
 1173SOL    HW3 4465   0.137   3.662   6.196 -1.8333 -1.8654 -0.5451
 1173SOL    MW4 4466   0.120   3.655   6.281 -0.0648  0.0385 -0.2186
 1174SOL     OW 4467   5.680   4.508   1.073 -0.0261  0.1193 -0.4182
 1174SOL    HW2 4468   5.757   4.535   1.123 -0.2764 -0.5102  0.3280
 1174SOL    HW3 4469   5.712   4.438   1.016 -0.2716 -1.0049  0.7694
 1174SOL    MW4 4470   5.695   4.502   1.072  0.2164 -0.2583  0.0094
 1175SOL     OW 4471   2.740   0.734   6.381  0.4797  0.0191  0.1359
 1175SOL    HW2 4472   2.783   0.687   6.452 -0.3283 -0.7224  0.1366
 1175SOL    HW3 4473   2.650   0.747   6.410  0.5374  1.0665 -0.1079
 1175SOL    MW4 4474   2.734   0.730   6.394 -0.2058  0.0957  0.3820
 1176SOL     OW 4475   1.943   2.814   4.962  0.0315  0.8779 -0.3086
 1176SOL    HW2 4476   1.881   2.837   5.030 -0.7702  1.2453 -1.1509
 1176SOL    HW3 4477   1.986   2.896   4.939  1.7412  0.4483  1.1073
 1176SOL    MW4 4478   1.941   2.828   4.967 -0.1190  0.0165 -0.5155
 1177SOL     OW 4479   1.334   0.780   2.207  0.0189 -0.1915  0.1038
 1177SOL    HW2 4480   1.373   0.748   2.288  1.4133 -1.5255 -1.0400
 1177SOL    HW3 4481   1.394   0.847   2.176  0.2413 -0.6810 -0.5372
 1177SOL    MW4 4482   1.347   0.785   2.213  0.6140 -0.0124  0.1054
 1178SOL     OW 4483   3.851   6.207   5.810  0.2654 -0.2819 -0.1395
 1178SOL    HW2 4484   3.788   6.264   5.767  2.1233  0.4283 -2.1058
 1178SOL    HW3 4485   3.924   6.264   5.833  0.8037 -1.3069  0.8131
 1178SOL    MW4 4486   3.853   6.222   5.807 -0.1639 -0.0779  0.1350
 1179SOL     OW 4487   3.974   4.569   4.592 -0.0380 -0.3255 -0.2596
 1179SOL    HW2 4488   4.064   4.538   4.603  0.4139  1.4791  2.1318
 1179SOL    HW3 4489   3.932   4.551   4.677 -0.6619  2.4472  0.1420
 1179SOL    MW4 4490   3.980   4.563   4.605  0.3069  0.1404 -0.0521
 1180SOL     OW 4491   5.428   0.710   2.326 -0.1024  0.2961 -0.0421
 1180SOL    HW2 4492   5.384   0.793   2.306 -1.0284 -0.3023 -0.5462
 1180SOL    HW3 4493   5.511   0.715   2.279 -1.9016 -0.7774 -3.6766
 1180SOL    MW4 4494   5.433   0.722   2.317  0.1330 -0.1153  0.2184
 1181SOL     OW 4495   1.989   1.592   3.764  0.4638 -0.3116  0.0975
 1181SOL    HW2 4496   1.906   1.601   3.717  0.4248  0.1506  0.2488
 1181SOL    HW3 4497   2.050   1.650   3.718  0.5219 -0.1306  0.3974
 1181SOL    MW4 4498   1.986   1.601   3.752  0.1770  0.0868 -0.1366
 1182SOL     OW 4499   3.003   3.743   5.901  0.5807  0.4844  0.7146
 1182SOL    HW2 4500   3.001   3.780   5.989  0.1969 -0.5360  1.1491
 1182SOL    HW3 4501   2.920   3.695   5.893  0.6962  0.4027 -0.1324
 1182SOL    MW4 4502   2.991   3.742   5.911 -0.8411 -0.4533 -0.1381
 1183SOL     OW 4503   5.855   0.877   0.276 -0.6141  0.4113  0.2136
 1183SOL    HW2 4504   5.786   0.893   0.212 -0.7518 -1.6885 -0.2483
 1183SOL    HW3 4505   5.904   0.959   0.280 -1.4901  1.0649 -1.4792
 1183SOL    MW4 4506   5.852   0.890   0.268 -0.7038 -0.1946 -0.0629
 1184SOL     OW 4507   0.558   0.900   5.933  0.9885 -0.2091  0.5455
 1184SOL    HW2 4508   0.645   0.883   5.897  0.8376 -2.2651  1.0540
 1184SOL    HW3 4509   0.571   0.905   6.028  0.4745 -1.2566  0.6868
 1184SOL    MW4 4510   0.571   0.899   5.941  0.2455 -0.0540  0.2721
 1185SOL     OW 4511   3.471   0.106   0.714  0.6304  0.1737 -0.0517
 1185SOL    HW2 4512   3.521   0.068   0.786  2.1500  1.3020 -0.4718
 1185SOL    HW3 4513   3.380   0.104   0.745  1.2266  0.4539  1.8230
 1185SOL    MW4 4514   3.465   0.101   0.728 -0.1153 -0.2346 -0.4493
 1186SOL     OW 4515   6.392   2.257   2.741  0.2750 -0.2899  0.3092
 1186SOL    HW2 4516   6.388   2.176   2.792 -0.5507  0.1435  0.9648
 1186SOL    HW3 4517   6.477   2.254   2.697  0.3443 -1.4079  0.4855
 1186SOL    MW4 4518   6.403   2.246   2.742 -0.7525 -0.8286 -0.2999
 1187SOL     OW 4519   0.857   0.034   4.875  0.2430  0.1744 -0.2564
 1187SOL    HW2 4520   0.783  -0.027   4.879  0.0066  0.5030  1.8048
 1187SOL    HW3 4521   0.931  -0.018   4.907  0.4515  0.4365 -0.3132
 1187SOL    MW4 4522   0.857   0.019   4.880 -0.1253 -0.3944 -0.5093
 1188SOL     OW 4523   4.776   1.777   1.158 -0.0059 -0.4485  0.6406
 1188SOL    HW2 4524   4.680   1.773   1.162 -0.0259 -0.5194  0.1830
 1188SOL    HW3 4525   4.794   1.828   1.079  0.3244  0.8760  1.5505
 1188SOL    MW4 4526   4.766   1.783   1.148 -0.1990 -0.1028 -0.3153
 1189SOL     OW 4527   4.675   1.414   0.225 -0.0244 -0.4358  0.5290
 1189SOL    HW2 4528   4.630   1.430   0.308  1.3803  1.3594  1.0019
 1189SOL    HW3 4529   4.632   1.473   0.162  0.0925 -0.4822  0.4046
 1189SOL    MW4 4530   4.663   1.424   0.227 -0.0859 -0.4259  0.2004
 1190SOL     OW 4531   1.939   4.851   4.052 -0.1170 -0.2238  0.4543
 1190SOL    HW2 4532   1.961   4.913   3.982 -0.3162  0.4118  0.9448
 1190SOL    HW3 4533   1.944   4.765   4.010 -0.3696  0.1540 -0.3709
 1190SOL    MW4 4534   1.943   4.848   4.037  0.0476 -0.9446 -0.1781
 1191SOL     OW 4535   1.894   4.948   5.263  0.1427 -0.0584  0.0231
 1191SOL    HW2 4536   1.976   4.952   5.312 -0.0539 -1.1243  0.4770
 1191SOL    HW3 4537   1.857   4.862   5.285 -1.0884  0.3926 -0.1834
 1191SOL    MW4 4538   1.900   4.937   5.273  0.7965 -0.5858 -0.1838
 1192SOL     OW 4539   2.656   4.457   1.040  0.6448 -0.2561  0.2511
 1192SOL    HW2 4540   2.745   4.491   1.047  0.6407  0.7645 -3.0730
 1192SOL    HW3 4541   2.600   4.529   1.068  0.8063  0.3504 -0.9388
 1192SOL    MW4 4542   2.660   4.471   1.045 -0.5556 -0.3865  0.1925
 1193SOL     OW 4543   6.281   0.629   2.299  0.3456 -0.5469  0.3530
 1193SOL    HW2 4544   6.353   0.615   2.360 -1.0317 -0.6228  2.0398
 1193SOL    HW3 4545   6.298   0.715   2.261  0.7273 -0.0499  1.6097
 1193SOL    MW4 4546   6.292   0.639   2.302  0.1759 -0.2722  0.0872
 1194SOL     OW 4547   0.816   1.082   5.304  0.5413  0.2753 -0.2397
 1194SOL    HW2 4548   0.904   1.119   5.300  1.1503 -0.7642  1.7984
 1194SOL    HW3 4549   0.830   0.987   5.307 -0.6609  0.0813 -0.0554
 1194SOL    MW4 4550   0.829   1.074   5.304  0.4160  0.3405  0.1540
 1195SOL     OW 4551   3.753   6.050   1.046 -0.1923 -0.4192  0.1633
 1195SOL    HW2 4552   3.703   6.064   1.127  0.8655 -0.7708  0.9131
 1195SOL    HW3 4553   3.782   5.959   1.053 -0.2293 -0.4980 -0.7008
 1195SOL    MW4 4554   3.750   6.040   1.058 -0.5239 -0.2086  0.1774
 1196SOL     OW 4555   2.025   3.547   0.568 -0.4358 -0.1445 -0.5287
 1196SOL    HW2 4556   2.067   3.620   0.612  0.4790  0.1793 -1.8648
 1196SOL    HW3 4557   1.935   3.576   0.553 -0.0775  0.7353 -1.0566
 1196SOL    MW4 4558   2.018   3.560   0.572  0.2681  0.3066 -0.0190
 1197SOL     OW 4559   2.242   3.932   4.381  0.0224  0.1976  0.2959
 1197SOL    HW2 4560   2.206   4.020   4.381 -0.1299  0.1474  1.6679
 1197SOL    HW3 4561   2.238   3.905   4.289 -1.5484  0.9504  0.1080
 1197SOL    MW4 4562   2.237   3.940   4.369  0.5572  0.0219  0.5797
 1198SOL     OW 4563   5.873   1.970   1.216  0.4927  0.6580 -0.1166
 1198SOL    HW2 4564   5.865   2.001   1.307  0.5674  0.1918  0.0511
 1198SOL    HW3 4565   5.908   1.882   1.224  2.0638  1.1997 -0.6591
 1198SOL    MW4 4566   5.877   1.963   1.229 -0.4107  0.1356  0.5760
 1199SOL     OW 4567   0.903   2.244   3.507 -0.4550 -0.2685 -0.1838
 1199SOL    HW2 4568   0.938   2.332   3.492 -1.1405  0.2581  1.1664
 1199SOL    HW3 4569   0.822   2.258   3.557 -0.0177 -1.7033  1.0078
 1199SOL    MW4 4570   0.897   2.258   3.512  0.3517 -0.3830 -0.0413
 1200SOL     OW 4571   5.290   5.682   5.796  0.6413 -0.5056 -0.2939
 1200SOL    HW2 4572   5.342   5.711   5.871 -2.7013 -0.4142  2.2079
 1200SOL    HW3 4573   5.332   5.601   5.768  2.0896 -0.4876  1.6230
 1200SOL    MW4 4574   5.303   5.675   5.802 -0.3875  0.1469  0.2194
 1201SOL     OW 4575   0.301   1.916   6.119  0.2589 -0.0877 -0.7986
 1201SOL    HW2 4576   0.353   1.989   6.087  0.1860 -0.1507 -1.0666
 1201SOL    HW3 4577   0.331   1.902   6.209  1.1624 -0.5325 -1.1523
 1201SOL    MW4 4578   0.312   1.923   6.127  0.4967 -0.7124 -0.0376
 1202SOL     OW 4579   4.704   5.048   3.311  0.2425  0.7022 -0.0340
 1202SOL    HW2 4580   4.773   4.983   3.328 -1.1137 -0.7886 -0.0494
 1202SOL    HW3 4581   4.733   5.126   3.360  1.9587  0.1661 -0.1034
 1202SOL    MW4 4582   4.717   5.050   3.320  0.3539  0.2333 -0.3945
 1203SOL     OW 4583   3.427   5.466   4.612 -0.0148 -0.1384  0.2105
 1203SOL    HW2 4584   3.350   5.518   4.589  1.4137  3.9474  3.4916
 1203SOL    HW3 4585   3.413   5.440   4.703  1.4457 -1.3617  0.1286
 1203SOL    MW4 4586   3.415   5.470   4.621 -0.0708 -0.7137  0.0557
 1204SOL     OW 4587   5.047   0.160   4.634 -0.3859 -0.3795 -0.3227
 1204SOL    HW2 4588   5.025   0.086   4.691 -0.1959 -0.5221 -0.4303
 1204SOL    HW3 4589   5.076   0.229   4.694  1.5949 -1.1412 -0.3018
 1204SOL    MW4 4590   5.048   0.159   4.649  0.1193  0.1475  0.2340
 1205SOL     OW 4591   1.065   2.182   2.061  0.2010 -0.3147  0.3526
 1205SOL    HW2 4592   1.079   2.146   1.973 -0.8762 -1.4388  0.6014
 1205SOL    HW3 4593   1.055   2.105   2.117  0.9287  0.3885  1.4851
 1205SOL    MW4 4594   1.065   2.167   2.057 -0.0799  0.1545  0.2458
 1206SOL     OW 4595   5.089   4.433   0.216 -0.2969 -0.3393  0.2255
 1206SOL    HW2 4596   5.028   4.386   0.272 -0.3289  0.6413  1.0413
 1206SOL    HW3 4597   5.174   4.392   0.234 -0.3101 -0.0426  0.9876
 1206SOL    MW4 4598   5.092   4.421   0.226  0.3186 -0.0909  0.1663
 1207SOL     OW 4599   6.413   2.156   6.159  0.3320  0.1257  0.0949
 1207SOL    HW2 4600   6.369   2.089   6.211  0.1755  1.0205  1.1436
 1207SOL    HW3 4601   6.394   2.238   6.203  0.2336  0.9255 -1.3620
 1207SOL    MW4 4602   6.405   2.158   6.171  0.1546  0.3035  0.6561
 1208SOL     OW 4603   2.481   0.686   5.168 -0.3104 -0.1159 -0.5024
 1208SOL    HW2 4604   2.497   0.665   5.260  2.9839  0.4295 -0.8063
 1208SOL    HW3 4605   2.505   0.778   5.159  0.8997 -0.5403 -2.1373
 1208SOL    MW4 4606   2.486   0.695   5.179  0.2135 -0.1017 -0.1206
 1209SOL     OW 4607   0.989   4.411   0.905 -0.1213 -0.9763 -0.1262
 1209SOL    HW2 4608   0.932   4.462   0.848 -1.3961 -2.4592 -0.2356
 1209SOL    HW3 4609   1.062   4.470   0.925 -1.8440  1.1332  0.3281
 1209SOL    MW4 4610   0.991   4.426   0.900  0.0106  0.4365  0.0921
 1210SOL     OW 4611   3.998   3.646   2.623  0.4742  0.3563 -0.0302
 1210SOL    HW2 4612   3.957   3.645   2.709  2.2628  0.3941  0.8639
 1210SOL    HW3 4613   3.929   3.618   2.563 -0.3442 -1.2998  1.6121
 1210SOL    MW4 4614   3.984   3.642   2.626  0.3907 -0.0508 -0.1953
 1211SOL     OW 4615   3.230   5.458   0.735  0.0341 -0.0340  0.5496
 1211SOL    HW2 4616   3.186   5.404   0.801 -1.0763  0.2003  0.0219
 1211SOL    HW3 4617   3.295   5.508   0.785  0.6856 -1.4194  1.1289
 1211SOL    MW4 4618   3.232   5.458   0.750 -0.0015  0.3862  0.3044
 1212SOL     OW 4619   6.041   6.108   5.981  0.0905  0.4661  0.1838
 1212SOL    HW2 4620   6.050   6.120   5.887  0.5241  1.0720  0.2988
 1212SOL    HW3 4621   6.053   6.196   6.018 -0.1437  0.2473  0.7989
 1212SOL    MW4 4622   6.044   6.121   5.974  0.1825 -0.6672 -0.1643
 1213SOL     OW 4623   2.552   0.665   5.445  0.0857 -0.3687 -0.9419
 1213SOL    HW2 4624   2.638   0.669   5.402  0.7718  1.8902  0.4661
 1213SOL    HW3 4625   2.560   0.593   5.507  0.8767 -0.3513 -1.0115
 1213SOL    MW4 4626   2.565   0.656   5.447  0.1684 -0.1422 -0.1352
 1214SOL     OW 4627   3.154   4.724   0.927  0.0208  0.5939 -0.2287
 1214SOL    HW2 4628   3.139   4.721   1.021  1.0406  0.2882 -0.0588
 1214SOL    HW3 4629   3.175   4.633   0.903  3.3856  1.1840 -0.0603
 1214SOL    MW4 4630   3.155   4.711   0.936 -0.2135  0.6799 -0.3483
 1215SOL     OW 4631   6.233   0.402   4.547 -0.5981 -0.9668 -0.7391
 1215SOL    HW2 4632   6.142   0.373   4.549 -0.8393 -0.1952  0.3225
 1215SOL    HW3 4633   6.283   0.320   4.540 -1.3342 -1.4827 -0.1774
 1215SOL    MW4 4634   6.228   0.387   4.546  0.2158  0.4842 -0.0186
 1216SOL     OW 4635   0.205   0.402   4.401 -0.7115  0.0252  0.2511
 1216SOL    HW2 4636   0.299   0.415   4.390 -0.8121 -0.5598 -1.6771
 1216SOL    HW3 4637   0.187   0.427   4.492  1.0792  1.3358  0.2841
 1216SOL    MW4 4638   0.215   0.407   4.411 -0.3568 -0.1204 -0.0246
 1217SOL     OW 4639   0.875   0.163   5.126 -0.1576 -0.0965  0.1647
 1217SOL    HW2 4640   0.797   0.219   5.126  0.4112  0.7221  1.2850
 1217SOL    HW3 4641   0.870   0.116   5.042 -0.9981  1.1272 -0.4985
 1217SOL    MW4 4642   0.864   0.164   5.115  0.0225  0.7151  0.6739
 1218SOL     OW 4643   6.203   0.807   3.532 -0.1387  0.7003  0.2002
 1218SOL    HW2 4644   6.111   0.829   3.546 -0.7390 -0.3120 -1.7291
 1218SOL    HW3 4645   6.234   0.871   3.468  0.5751  1.1610  0.9897
 1218SOL    MW4 4646   6.195   0.818   3.525  0.3638  0.2311  0.3370
 1219SOL     OW 4647   3.674   4.845   5.391  0.4548 -0.3500  0.2187
 1219SOL    HW2 4648   3.587   4.804   5.390  1.4652 -2.6852  0.8361
 1219SOL    HW3 4649   3.670   4.912   5.323 -1.8685 -0.2788  0.3431
 1219SOL    MW4 4650   3.662   4.848   5.382  0.3515  0.2247 -0.0428
 1220SOL     OW 4651   4.504   1.117   1.950  0.4864  0.7293  0.2869
 1220SOL    HW2 4652   4.420   1.074   1.962  0.0078  0.9584 -1.7729
 1220SOL    HW3 4653   4.496   1.201   1.994 -0.1165  0.4603  0.6909
 1220SOL    MW4 4654   4.492   1.122   1.957 -0.1487  0.3324  0.4455
 1221SOL     OW 4655   1.164   5.258   1.645  0.1420  0.1400 -0.0994
 1221SOL    HW2 4656   1.131   5.180   1.690 -0.1604 -0.2421 -0.9543
 1221SOL    HW3 4657   1.144   5.242   1.553 -1.5154  2.0105 -0.1255
 1221SOL    MW4 4658   1.157   5.245   1.639 -0.2738 -0.7066  0.1270
 1222SOL     OW 4659   5.373   0.974   4.321  0.4497 -0.4315 -0.1655
 1222SOL    HW2 4660   5.332   1.059   4.341  1.2362  0.1636 -1.0161
 1222SOL    HW3 4661   5.419   0.988   4.239 -0.4205 -2.0561 -0.9816
 1222SOL    MW4 4662   5.373   0.987   4.313  0.3653  0.1400  0.5763
 1223SOL     OW 4663   1.558   1.753   3.812 -0.1764  0.1387  0.0867
 1223SOL    HW2 4664   1.492   1.798   3.759 -0.0411  0.8041  0.4752
 1223SOL    HW3 4665   1.601   1.823   3.862 -0.2837 -0.4599  1.0571
 1223SOL    MW4 4666   1.555   1.768   3.812 -1.0002  0.5265  0.6211
 1224SOL     OW 4667   2.447   0.271   4.770  0.2706  0.1645 -0.4468
 1224SOL    HW2 4668   2.538   0.277   4.740  0.7809  1.5930  1.2020
 1224SOL    HW3 4669   2.443   0.188   4.817  0.7823  0.1877 -0.3542
 1224SOL    MW4 4670   2.458   0.261   4.772 -0.1539  0.1757 -0.3438
 1225SOL     OW 4671   5.962   2.979   0.657 -0.5951 -0.1749  0.2974
 1225SOL    HW2 4672   5.942   3.071   0.675  2.8241  0.4604  1.5382
 1225SOL    HW3 4673   5.908   2.931   0.721 -0.9401  1.0797  0.9901
 1225SOL    MW4 4674   5.952   2.985   0.668 -0.4057  0.3607  0.6783
 1226SOL     OW 4675   3.875   2.695   0.398 -0.0254  0.7388  0.2168
 1226SOL    HW2 4676   3.955   2.644   0.408 -1.5931 -1.5759  2.3598
 1226SOL    HW3 4677   3.833   2.659   0.319 -0.2351 -0.0509  0.6718
 1226SOL    MW4 4678   3.880   2.683   0.389 -0.2987 -0.6978 -0.3428
 1227SOL     OW 4679   0.207   1.152   1.050 -0.5044 -0.0845 -0.4626
 1227SOL    HW2 4680   0.295   1.126   1.024  0.4431  1.7746  0.6363
 1227SOL    HW3 4681   0.155   1.072   1.041  1.2064 -1.1639 -1.4225
 1227SOL    MW4 4682   0.212   1.138   1.046  0.6228  0.5142  0.1187
 1228SOL     OW 4683   3.474   2.299   6.178 -0.1944 -0.2556 -0.1117
 1228SOL    HW2 4684   3.427   2.231   6.225 -1.4163  0.2706 -0.5472
 1228SOL    HW3 4685   3.433   2.303   6.092 -0.3276  1.1878 -0.0111
 1228SOL    MW4 4686   3.463   2.291   6.173  0.1794 -0.8644 -0.2596
 1229SOL     OW 4687   4.137   6.250   1.599 -0.2854  0.1702 -0.0837
 1229SOL    HW2 4688   4.047   6.223   1.579  0.1287 -0.8922 -0.5552
 1229SOL    HW3 4689   4.152   6.217   1.688  0.5186 -2.0363 -0.9761
 1229SOL    MW4 4690   4.127   6.242   1.608 -0.1011 -0.1693  0.1493
 1230SOL     OW 4691   3.556   0.074   4.298 -0.1286 -0.3615  0.2132
 1230SOL    HW2 4692   3.581   0.141   4.363  2.3061 -1.6881  0.7718
 1230SOL    HW3 4693   3.503   0.012   4.347 -1.1027  0.3368  0.0710
 1230SOL    MW4 4694   3.553   0.075   4.313  0.0803  0.6268  0.2382
 1231SOL     OW 4695   5.912   5.724   2.429 -0.1653 -0.1419 -0.5986
 1231SOL    HW2 4696   5.979   5.662   2.399 -0.1613 -0.5453  0.2145
 1231SOL    HW3 4697   5.930   5.735   2.523 -1.9553 -1.1909 -0.0777
 1231SOL    MW4 4698   5.923   5.717   2.438  0.3400  0.3708 -0.3057
 1232SOL     OW 4699   1.531   2.291   5.949 -0.1529 -0.4502  0.2311
 1232SOL    HW2 4700   1.577   2.367   5.913  0.2096 -1.0718 -0.6359
 1232SOL    HW3 4701   1.542   2.299   6.044 -0.6329  0.9006  0.1940
 1232SOL    MW4 4702   1.538   2.302   5.957 -0.5896  0.1963 -0.0658
 1233SOL     OW 4703   1.853   5.703   0.120 -0.2017 -0.5894  0.0216
 1233SOL    HW2 4704   1.911   5.655   0.179  0.6554 -0.1181 -0.4318
 1233SOL    HW3 4705   1.766   5.668   0.139 -0.0883  0.2199  2.2268
 1233SOL    MW4 4706   1.849   5.692   0.130  0.6683  0.1447  0.4532
 1234SOL     OW 4707   0.948   2.238   5.446  0.8218 -0.2607  0.5951
 1234SOL    HW2 4708   1.035   2.266   5.416  0.0846  0.2652 -1.2225
 1234SOL    HW3 4709   0.940   2.148   5.416 -0.2623  0.5442 -1.7589
 1234SOL    MW4 4710   0.958   2.230   5.438  0.7389 -0.5560 -0.1846
 1235SOL     OW 4711   4.381   6.142   2.265 -0.2725  0.0686 -0.0542
 1235SOL    HW2 4712   4.474   6.139   2.245 -0.0620  1.1454  0.6903
 1235SOL    HW3 4713   4.364   6.233   2.289 -0.8229 -0.7008  2.9104
 1235SOL    MW4 4714   4.391   6.154   2.266 -0.1580  0.1141 -0.5182
 1236SOL     OW 4715   4.681   4.996   5.669  0.6015 -0.3757 -0.2474
 1236SOL    HW2 4716   4.688   5.090   5.652  0.4786 -0.0388  1.4061
 1236SOL    HW3 4717   4.671   4.989   5.764  0.7035 -2.0740 -0.3245
 1236SOL    MW4 4718   4.681   5.007   5.680 -0.4502  0.2264 -0.4133
 1237SOL     OW 4719   4.151   2.260   1.238 -0.5183 -0.2383 -0.1101
 1237SOL    HW2 4720   4.219   2.285   1.176 -0.5153  2.7850  0.9336
 1237SOL    HW3 4721   4.199   2.230   1.316 -0.4058  0.4371  0.0835
 1237SOL    MW4 4722   4.166   2.259   1.240 -0.2899  0.3451  0.2574
 1238SOL     OW 4723   4.551   1.245   0.814  0.1868 -0.1765  0.3837
 1238SOL    HW2 4724   4.577   1.306   0.745  1.1047 -0.8761  0.0842
 1238SOL    HW3 4725   4.633   1.200   0.838 -0.2635 -0.5094  1.3684
 1238SOL    MW4 4726   4.565   1.247   0.808 -0.1834  0.2272 -0.2361
 1239SOL     OW 4727   1.979   3.195   1.485  0.0529 -0.7241 -0.1033
 1239SOL    HW2 4728   2.006   3.283   1.459  0.1977 -0.5569  0.6060
 1239SOL    HW3 4729   1.954   3.204   1.577  0.3677 -1.4868  0.0624
 1239SOL    MW4 4730   1.979   3.208   1.493  0.1357 -0.3125 -0.1946
 1240SOL     OW 4731   0.334   4.131   0.380 -0.3579 -0.0890 -0.3868
 1240SOL    HW2 4732   0.333   4.107   0.473  1.8874 -0.0722 -0.3035
 1240SOL    HW3 4733   0.294   4.218   0.378 -0.7814 -0.2399  0.4911
 1240SOL    MW4 4734   0.328   4.139   0.392 -0.1821 -0.1769  0.0980
 1241SOL     OW 4735   2.485   2.801   3.372 -0.4408 -0.2937 -0.0003
 1241SOL    HW2 4736   2.481   2.831   3.281  0.7420  0.1647  0.0813
 1241SOL    HW3 4737   2.531   2.871   3.418 -1.1972 -0.4336  0.9995
 1241SOL    MW4 4738   2.491   2.814   3.366  0.3545 -0.7275  0.2608
 1242SOL     OW 4739   5.850   3.296   3.343 -0.4939  0.2902 -0.4398
 1242SOL    HW2 4740   5.805   3.378   3.365 -0.1211  0.1892  0.8142
 1242SOL    HW3 4741   5.905   3.278   3.419 -1.5506 -1.8157 -0.0754
 1242SOL    MW4 4742   5.851   3.304   3.356 -1.1657  0.3633  0.5356
 1243SOL     OW 4743   1.415   0.978   1.770 -0.1820 -0.1642  0.5826
 1243SOL    HW2 4744   1.473   1.054   1.776  0.3923 -0.6209  0.9874
 1243SOL    HW3 4745   1.451   0.916   1.833  0.3400 -1.4011 -0.8706
 1243SOL    MW4 4746   1.428   0.980   1.779 -0.2482 -1.1166  0.4896
 1244SOL     OW 4747   1.294   1.093   4.530  0.1039  0.0873 -0.2140
 1244SOL    HW2 4748   1.263   1.149   4.458 -0.2650 -0.8993 -0.8437
 1244SOL    HW3 4749   1.294   1.005   4.493 -0.4750 -0.4988  1.1165
 1244SOL    MW4 4750   1.290   1.089   4.516 -0.8031 -0.7814 -0.4138
 1245SOL     OW 4751   5.076   2.999   0.686  0.1945  0.0951 -0.1043
 1245SOL    HW2 4752   5.054   3.051   0.763  0.3827 -0.3728  0.2682
 1245SOL    HW3 4753   5.127   2.925   0.720 -1.0281 -0.9611 -0.4788
 1245SOL    MW4 4754   5.080   2.996   0.701  0.5506  0.6451  0.3000
 1246SOL     OW 4755   2.947   6.028   1.399 -0.1423 -0.3317 -0.0906
 1246SOL    HW2 4756   2.919   5.957   1.342  1.3006 -0.8441 -0.1944
 1246SOL    HW3 4757   2.956   6.103   1.340  0.7168 -0.6973 -0.4441
 1246SOL    MW4 4758   2.944   6.029   1.383 -0.6230  0.0210  0.0139
 1247SOL     OW 4759   0.322   0.989   3.658  0.3132 -0.3412 -0.3319
 1247SOL    HW2 4760   0.343   1.032   3.575  2.0865 -1.7618 -0.6820
 1247SOL    HW3 4761   0.237   0.948   3.643 -0.0482  0.6063 -0.9456
 1247SOL    MW4 4762   0.314   0.989   3.645 -0.2459  0.2333  0.9980
 1248SOL     OW 4763   6.048   6.273   3.630 -0.1567 -0.5078  0.1818
 1248SOL    HW2 4764   6.117   6.261   3.695 -0.4477 -1.7111  0.2780
 1248SOL    HW3 4765   5.969   6.293   3.681 -0.0559  0.1189  0.1064
 1248SOL    MW4 4766   6.046   6.274   3.645 -0.3478 -0.4642  0.2098
 1249SOL     OW 4767   6.198   1.918   2.435 -0.1191 -0.8495  0.2260
 1249SOL    HW2 4768   6.195   1.940   2.342 -0.0057 -2.3438 -0.1460
 1249SOL    HW3 4769   6.291   1.904   2.453 -0.2379 -1.5812  0.3041
 1249SOL    MW4 4770   6.210   1.919   2.425  0.1052 -0.3062  0.7581
 1250SOL     OW 4771   5.688   5.478   0.170  0.0954  0.2332 -0.2196
 1250SOL    HW2 4772   5.645   5.394   0.155 -0.5859  0.5993 -0.3417
 1250SOL    HW3 4773   5.780   5.455   0.187 -0.4203 -0.6633  1.5373
 1250SOL    MW4 4774   5.695   5.464   0.170 -0.0148  0.1803 -0.2981
 1251SOL     OW 4775   5.155   0.238   3.183  0.4868 -0.6930 -0.1976
 1251SOL    HW2 4776   5.194   0.152   3.197 -1.5814 -1.9900 -1.7478
 1251SOL    HW3 4777   5.100   0.227   3.105  0.5176  2.1831 -0.7487
 1251SOL    MW4 4778   5.153   0.225   3.174  0.3358  0.2760  0.8160
 1252SOL     OW 4779   0.495   4.516   2.294  0.0762 -0.3330 -0.2928
 1252SOL    HW2 4780   0.453   4.484   2.214 -0.0152 -0.1045 -0.3354
 1252SOL    HW3 4781   0.423   4.546   2.349  0.1769 -0.0132 -0.3357
 1252SOL    MW4 4782   0.480   4.515   2.290 -0.2724  0.0215  0.0577
 1253SOL     OW 4783   2.357   3.001   2.181  0.5725 -0.3916 -0.3837
 1253SOL    HW2 4784   2.372   2.955   2.264  3.2655  1.1175  0.1198
 1253SOL    HW3 4785   2.442   2.997   2.136 -0.1072  1.0065 -1.8921
 1253SOL    MW4 4786   2.370   2.995   2.186  0.1463  0.5413 -0.0264
 1254SOL     OW 4787   3.203   2.974   2.801 -0.2399  0.6351  0.0162
 1254SOL    HW2 4788   3.200   2.901   2.863 -0.5253 -0.1131 -0.8595
 1254SOL    HW3 4789   3.293   3.005   2.805 -0.0416  0.0538  0.2104
 1254SOL    MW4 4790   3.214   2.968   2.810 -0.3461 -0.0363 -0.5372
 1255SOL     OW 4791   5.157   3.925   6.379 -0.0485  0.3388 -0.2142
 1255SOL    HW2 4792   5.152   3.847   6.323  1.5389  1.8525 -2.6252
 1255SOL    HW3 4793   5.250   3.933   6.400 -0.2310  1.4392  0.2390
 1255SOL    MW4 4794   5.169   3.916   6.375  0.3644 -0.8617  0.1076
 1256SOL     OW 4795   1.950   0.928   5.761  0.2520 -0.7206  0.6321
 1256SOL    HW2 4796   1.960   0.833   5.767 -0.0288 -0.8705 -0.7933
 1256SOL    HW3 4797   2.019   0.956   5.701  0.3377 -0.0142  1.0498
 1256SOL    MW4 4798   1.960   0.920   5.754 -0.1528  0.3176 -0.5064
 1257SOL     OW 4799   1.121   0.910   2.778 -0.1710 -0.2513  0.1572
 1257SOL    HW2 4800   1.083   0.869   2.701 -1.6423 -0.1557  0.8011
 1257SOL    HW3 4801   1.202   0.950   2.747 -0.0771 -1.3447 -1.0379
 1257SOL    MW4 4802   1.126   0.910   2.764  0.4178  0.2354  0.3118
 1258SOL     OW 4803   6.400   6.181   4.657  0.0527 -0.2097  0.1998
 1258SOL    HW2 4804   6.467   6.249   4.665 -0.5162  0.1902  1.9929
 1258SOL    HW3 4805   6.441   6.114   4.602  1.3767  0.6596  0.0618
 1258SOL    MW4 4806   6.414   6.181   4.651  0.2550 -0.0615 -0.2333
 1259SOL     OW 4807   1.543   4.232   6.384 -0.0267 -0.7612 -0.2445
 1259SOL    HW2 4808   1.523   4.141   6.408  0.2192 -0.8506 -0.3785
 1259SOL    HW3 4809   1.637   4.233   6.370 -0.0652 -0.5409 -0.4937
 1259SOL    MW4 4810   1.552   4.220   6.385 -0.7260 -0.3755 -0.0468
 1260SOL     OW 4811   6.180   6.312   1.805 -0.0664 -0.3175 -0.0036
 1260SOL    HW2 4812   6.264   6.276   1.777  2.4656  2.2844  3.3356
 1260SOL    HW3 4813   6.144   6.354   1.726  1.4209 -1.9640 -1.6433
 1260SOL    MW4 4814   6.186   6.313   1.791 -0.0353 -0.5426  0.6543
 1261SOL     OW 4815   2.210   3.256   3.878  0.1609 -0.0693  0.5025
 1261SOL    HW2 4816   2.226   3.239   3.786  0.4825  1.5815  0.2224
 1261SOL    HW3 4817   2.291   3.297   3.910 -0.3075  0.3011  1.2609
 1261SOL    MW4 4818   2.223   3.259   3.870 -0.1086 -0.6279  0.1378
 1262SOL     OW 4819   1.838   5.783   4.100  0.1370  0.6308  0.5607
 1262SOL    HW2 4820   1.764   5.835   4.133 -0.7155 -0.8097  1.0236
 1262SOL    HW3 4821   1.836   5.704   4.153  2.3212  0.7422  0.8848
 1262SOL    MW4 4822   1.828   5.780   4.112 -0.1232  0.4715  0.3059
 1263SOL     OW 4823   0.180   2.695   4.105 -0.2402  0.6393  0.6000
 1263SOL    HW2 4824   0.092   2.727   4.085 -0.2938  0.9780  1.3561
 1263SOL    HW3 4825   0.235   2.774   4.105  0.0143  0.4618  0.3769
 1263SOL    MW4 4826   0.176   2.710   4.103 -0.1489 -0.4672 -0.0195
 1264SOL     OW 4827   4.037   5.579   4.067 -0.0170 -0.4210  0.0817
 1264SOL    HW2 4828   3.966   5.550   4.010 -0.2457 -1.2779  0.7879
 1264SOL    HW3 4829   3.994   5.616   4.143  0.2739  1.5904 -0.6609
 1264SOL    MW4 4830   4.022   5.580   4.069 -0.6492  0.6189 -0.1490
 1265SOL     OW 4831   1.005   6.338   4.360 -0.2489  0.0279 -0.5223
 1265SOL    HW2 4832   1.092   6.375   4.345 -0.8792  1.5899 -0.4407
 1265SOL    HW3 4833   0.966   6.393   4.427 -0.9143 -1.3430  0.2628
 1265SOL    MW4 4834   1.011   6.350   4.367  0.2123 -0.3490 -0.1950
 1266SOL     OW 4835   3.359   1.708   3.000 -0.1387 -1.0376 -0.1289
 1266SOL    HW2 4836   3.370   1.803   3.001  1.0956 -1.1660  1.2626
 1266SOL    HW3 4837   3.264   1.695   3.006 -0.2724  0.1033  0.5380
 1266SOL    MW4 4838   3.348   1.719   3.001  0.3501  0.1914 -0.3000
 1267SOL     OW 4839   6.393   3.385   3.014 -0.0426 -0.5166  0.1684
 1267SOL    HW2 4840   6.463   3.412   3.073  0.3641  0.7327 -0.8473
 1267SOL    HW3 4841   6.434   3.383   2.927 -1.2885  0.4325 -0.4766
 1267SOL    MW4 4842   6.407   3.388   3.010  0.1229 -0.3579 -0.6601
 1268SOL     OW 4843   5.281   5.890   0.068  0.1724 -0.6286  0.2324
 1268SOL    HW2 4844   5.297   5.812   0.015 -0.7522 -1.6135  1.3504
 1268SOL    HW3 4845   5.225   5.860   0.139 -1.0921  1.2797  0.1143
 1268SOL    MW4 4846   5.276   5.876   0.070 -0.5130  0.0758 -0.3856
 1269SOL     OW 4847   4.158   4.306   4.751 -0.1826  0.2987 -0.4844
 1269SOL    HW2 4848   4.136   4.369   4.819 -1.7371  0.9119 -1.4909
 1269SOL    HW3 4849   4.247   4.279   4.771 -0.0384  1.6318  0.8696
 1269SOL    MW4 4850   4.167   4.310   4.762 -0.0134  0.1195  0.4542
 1270SOL     OW 4851   1.822   4.936   1.051  0.2462 -0.1138  0.0434
 1270SOL    HW2 4852   1.908   4.899   1.070  0.7415  0.7863 -0.3769
 1270SOL    HW3 4853   1.814   5.010   1.112 -0.2771 -0.2503  0.1508
 1270SOL    MW4 4854   1.832   4.941   1.062 -0.0819  0.0039  0.3342
 1271SOL     OW 4855   0.843   5.822   0.913 -0.4536  0.7483  0.4511
 1271SOL    HW2 4856   0.835   5.768   0.834 -0.9732  0.2134  0.8619
 1271SOL    HW3 4857   0.936   5.817   0.936 -0.1304  1.5746 -0.5751
 1271SOL    MW4 4858   0.854   5.814   0.905  0.0508 -0.7677 -0.5244
 1272SOL     OW 4859   0.926   3.604   6.017  0.0186 -0.2840  0.3106
 1272SOL    HW2 4860   1.019   3.626   6.009  0.0331 -0.7570 -1.2119
 1272SOL    HW3 4861   0.883   3.655   5.948 -1.0831  1.0021  1.8719
 1272SOL    MW4 4862   0.933   3.614   6.007 -0.0415  0.0093 -0.8298
 1273SOL     OW 4863   2.329   1.656   5.373  0.0303  0.0886  0.4283
 1273SOL    HW2 4864   2.405   1.609   5.338 -1.2134 -3.4249  2.0404
 1273SOL    HW3 4865   2.359   1.689   5.457 -0.0666 -0.9222  0.8714
 1273SOL    MW4 4866   2.343   1.654   5.379  0.0908  0.2926  0.8682
 1274SOL     OW 4867   0.353   0.110   5.530 -0.3644  0.5371  0.2363
 1274SOL    HW2 4868   0.446   0.132   5.531 -0.4646  0.9942  1.3943
 1274SOL    HW3 4869   0.342   0.045   5.599 -0.7208 -0.3710 -0.6570
 1274SOL    MW4 4870   0.364   0.105   5.539  0.1632  0.3535 -0.1374
 1275SOL     OW 4871   4.898   6.054   1.421 -0.3256  0.0160  0.3094
 1275SOL    HW2 4872   4.814   6.045   1.375 -1.0566  0.8421  1.4352
 1275SOL    HW3 4873   4.880   6.021   1.509  1.4065 -2.8631 -0.2693
 1275SOL    MW4 4874   4.884   6.048   1.426  0.3354 -0.6291  0.0869
 1276SOL     OW 4875   2.956   5.592   2.936  0.0687  0.1657 -0.0714
 1276SOL    HW2 4876   2.899   5.645   2.992  0.2667 -1.4618  1.8035
 1276SOL    HW3 4877   2.971   5.646   2.859 -0.3021  2.5341  1.3982
 1276SOL    MW4 4878   2.950   5.607   2.933 -0.2474 -0.0358 -0.4094
 1277SOL     OW 4879   0.559   0.175   4.141 -0.6125  0.2055 -0.3410
 1277SOL    HW2 4880   0.627   0.233   4.176  0.7898 -2.1217  1.0563
 1277SOL    HW3 4881   0.589   0.154   4.053  0.7418 -1.0482  0.3729
 1277SOL    MW4 4882   0.572   0.180   4.134 -0.0821 -0.0287 -0.1599
 1278SOL     OW 4883   4.844   3.650   1.750 -0.7386 -0.5656  0.2021
 1278SOL    HW2 4884   4.808   3.577   1.800 -1.3622  0.1518  0.8451
 1278SOL    HW3 4885   4.771   3.678   1.694  0.0789 -1.6325 -1.4741
 1278SOL    MW4 4886   4.830   3.644   1.749 -0.0144  0.0490  0.7376
 1279SOL     OW 4887   4.106   3.060   6.016  0.5517 -0.1042  0.2677
 1279SOL    HW2 4888   4.070   3.014   5.940 -0.2526 -0.5607  0.9029
 1279SOL    HW3 4889   4.053   3.140   6.023  1.0098  0.2210  0.0021
 1279SOL    MW4 4890   4.094   3.064   6.007 -0.0225  0.7864  0.6699
 1280SOL     OW 4891   3.042   2.648   1.631 -0.2729  0.0964  0.4938
 1280SOL    HW2 4892   3.082   2.584   1.691  1.6802  0.3580 -0.4680
 1280SOL    HW3 4893   3.102   2.722   1.631  0.4235 -0.3407 -2.6323
 1280SOL    MW4 4894   3.055   2.649   1.639  0.3659  0.2666  0.3386
 1281SOL     OW 4895   2.781   4.720   5.750 -0.8517  0.3894 -0.1627
 1281SOL    HW2 4896   2.824   4.755   5.828 -1.7573  0.6302  0.2402
 1281SOL    HW3 4897   2.802   4.783   5.680  0.1485  0.0550 -0.1829
 1281SOL    MW4 4898   2.790   4.733   5.751 -1.5344  0.2713 -0.1994
 1282SOL     OW 4899   0.902   1.611   2.500  0.3505 -0.0180  0.0858
 1282SOL    HW2 4900   0.947   1.678   2.550 -0.7644 -0.0845  1.2251
 1282SOL    HW3 4901   0.972   1.558   2.461  1.2281  1.0815  0.1335
 1282SOL    MW4 4902   0.917   1.613   2.501  0.1745 -1.1295 -0.1936
 1283SOL     OW 4903   4.308   2.519   5.427 -0.0162  0.0099  0.7374
 1283SOL    HW2 4904   4.355   2.438   5.447 -0.7864 -0.8363 -0.7340
 1283SOL    HW3 4905   4.364   2.588   5.464  2.0383 -0.9988 -0.2753
 1283SOL    MW4 4906   4.322   2.518   5.434 -0.0138 -0.2647  0.4321
 1284SOL     OW 4907   1.211   6.328   1.228 -0.1464 -0.3308 -0.6648
 1284SOL    HW2 4908   1.215   6.255   1.291  1.4232 -1.2858 -1.7832
 1284SOL    HW3 4909   1.251   6.292   1.149  1.0306  1.8616 -1.1425
 1284SOL    MW4 4910   1.217   6.313   1.226 -0.2181  0.2187  0.4544
 1285SOL     OW 4911   3.259   5.044   5.360  0.0477 -0.1144 -0.0662
 1285SOL    HW2 4912   3.167   5.021   5.350 -0.1857  0.4733  0.6318
 1285SOL    HW3 4913   3.305   4.960   5.354 -0.5407 -0.4301 -0.2740
 1285SOL    MW4 4914   3.253   5.030   5.358 -0.5309  0.2283 -0.2479
 1286SOL     OW 4915   4.002   0.354   1.944  0.7229 -0.3251 -0.6480
 1286SOL    HW2 4916   3.973   0.386   2.029  1.3182 -1.7068  0.1048
 1286SOL    HW3 4917   3.924   0.314   1.906  0.2653  0.9301 -1.1123
 1286SOL    MW4 4918   3.988   0.353   1.950 -0.4021 -0.0970  0.2887
 1287SOL     OW 4919   6.214   1.135   4.896  0.2462 -0.5404  0.1419
 1287SOL    HW2 4920   6.168   1.127   4.812  1.1254 -1.7518 -0.2424
 1287SOL    HW3 4921   6.291   1.079   4.887 -0.5643 -2.1526  2.3918
 1287SOL    MW4 4922   6.218   1.127   4.884  0.9357  0.1481 -0.3187
 1288SOL     OW 4923   3.544   1.364   2.647 -0.7971  0.8868  1.0360
 1288SOL    HW2 4924   3.587   1.293   2.599  0.6461  2.1529  0.3555
 1288SOL    HW3 4925   3.501   1.416   2.579  0.4893  2.1850  1.1838
 1288SOL    MW4 4926   3.544   1.361   2.631  0.0490 -0.5472  0.6044
 1289SOL     OW 4927   3.138   0.482   2.490  0.6761  0.0122  0.2539
 1289SOL    HW2 4928   3.124   0.405   2.546  0.0611  0.8232  1.2622
 1289SOL    HW3 4929   3.152   0.554   2.552 -0.8227  1.1114 -0.6036
 1289SOL    MW4 4930   3.138   0.481   2.506  0.3161  0.3733 -0.1451
 1290SOL     OW 4931   4.041   2.975   2.426 -0.6755 -0.5297  0.1877
 1290SOL    HW2 4932   3.946   2.976   2.419 -0.6453  1.5393 -0.4663
 1290SOL    HW3 4933   4.062   3.044   2.488  0.4696  0.9269 -1.7124
 1290SOL    MW4 4934   4.031   2.984   2.433  0.0431 -0.0325 -0.5015
 1291SOL     OW 4935   6.292   6.050   2.987 -0.2624 -0.1068 -0.2034
 1291SOL    HW2 4936   6.321   6.069   3.077 -0.3559 -1.1477  0.0591
 1291SOL    HW3 4937   6.360   6.089   2.932  0.0580  0.1080  0.3274
 1291SOL    MW4 4938   6.305   6.058   2.992  0.2255  0.4159 -0.2695
 1292SOL     OW 4939   2.239   3.493   0.378 -0.8411  0.2000 -0.2143
 1292SOL    HW2 4940   2.165   3.524   0.430 -1.3395  0.8594 -1.2823
 1292SOL    HW3 4941   2.222   3.527   0.290  1.3643  1.5087 -0.2150
 1292SOL    MW4 4942   2.227   3.502   0.374  0.3516 -0.0137  0.0899
 1293SOL     OW 4943   2.657   0.256   1.449  0.3387 -0.3270  0.4107
 1293SOL    HW2 4944   2.703   0.338   1.435  0.2522 -0.1154  1.3041
 1293SOL    HW3 4945   2.706   0.212   1.519 -0.8083 -0.0655  1.4250
 1293SOL    MW4 4946   2.669   0.261   1.457  0.6364  0.0399  0.3249
 1294SOL     OW 4947   5.633   4.806   5.904 -0.0529 -0.9108  0.1239
 1294SOL    HW2 4948   5.650   4.769   5.991  2.3978  0.6280  0.3973
 1294SOL    HW3 4949   5.543   4.782   5.885 -0.5961 -1.4881  2.9948
 1294SOL    MW4 4950   5.624   4.798   5.913  0.3887  0.2640  0.2618
 1295SOL     OW 4951   4.874   5.595   2.253 -0.7555 -0.0483 -0.6736
 1295SOL    HW2 4952   4.921   5.518   2.285  0.8035  1.1624  0.0713
 1295SOL    HW3 4953   4.788   5.591   2.296 -0.0656 -0.4560  0.6978
 1295SOL    MW4 4954   4.869   5.584   2.263 -0.5405 -0.3910  0.6224
 1296SOL     OW 4955   3.246   6.089   5.853 -0.3181  0.5070  0.1449
 1296SOL    HW2 4956   3.305   6.018   5.878 -1.0893  0.7584  2.9854
 1296SOL    HW3 4957   3.223   6.069   5.762 -0.5008 -2.8836  0.7887
 1296SOL    MW4 4958   3.251   6.077   5.844  0.0907  0.0451 -0.3207
 1297SOL     OW 4959   4.487   6.340   0.585  0.1496 -0.3377 -0.2811
 1297SOL    HW2 4960   4.582   6.352   0.576 -0.0092  0.8470 -0.5201
 1297SOL    HW3 4961   4.461   6.293   0.506  0.3221  0.6700 -0.9428
 1297SOL    MW4 4962   4.496   6.335   0.573  0.4374 -0.2888  0.2341
 1298SOL     OW 4963   2.914   0.574   5.126  0.0237 -0.1543 -0.3722
 1298SOL    HW2 4964   2.877   0.550   5.040 -1.8048  2.0991 -0.3009
 1298SOL    HW3 4965   2.959   0.495   5.155  0.9009 -0.9478 -3.4872
 1298SOL    MW4 4966   2.915   0.560   5.118  0.1369 -0.7657  0.9618
 1299SOL     OW 4967   1.584   0.072   4.727 -0.6045 -0.3079 -0.1302
 1299SOL    HW2 4968   1.598   0.043   4.636 -0.0630 -0.6189  0.0445
 1299SOL    HW3 4969   1.603  -0.006   4.780  0.4648  0.2370  0.3275
 1299SOL    MW4 4970   1.588   0.058   4.722 -0.6513 -0.5711 -0.3162
 1300SOL     OW 4971   5.054   0.702   3.703  0.9317 -0.2445  0.1115
 1300SOL    HW2 4972   5.037   0.610   3.723  3.2721 -0.6311  0.6985
 1300SOL    HW3 4973   5.147   0.704   3.678  1.3897  2.1750  1.6842
 1300SOL    MW4 4974   5.064   0.690   3.702  0.0701  0.1530 -0.0620
 1301SOL     OW 4975   5.529   5.693   5.245  0.0014 -0.8115  0.1729
 1301SOL    HW2 4976   5.610   5.734   5.214 -0.0074 -0.2054  0.9108
 1301SOL    HW3 4977   5.525   5.610   5.198  0.2350 -0.1555 -1.0511
 1301SOL    MW4 4978   5.539   5.687   5.235  0.1623 -0.2598  0.3474
 1302SOL     OW 4979   2.621   1.041   2.019  0.7394  0.0707  0.1268
 1302SOL    HW2 4980   2.640   1.036   2.113 -1.8771  2.3419  0.8924
 1302SOL    HW3 4981   2.574   0.960   2.001  1.2961 -0.4090  0.7347
 1302SOL    MW4 4982   2.618   1.030   2.029 -0.6341  0.0819 -0.5349
 1303SOL     OW 4983   6.000   5.411   4.971 -0.2349 -0.6026  0.1576
 1303SOL    HW2 4984   6.066   5.476   4.996 -0.5209 -0.7131  1.2107
 1303SOL    HW3 4985   5.919   5.442   5.011  0.2670 -3.4297  3.8931
 1303SOL    MW4 4986   5.998   5.424   4.979  0.7468  0.1946  0.2770
 1304SOL     OW 4987   2.910   3.255   2.571 -0.5655 -0.5039  0.2389
 1304SOL    HW2 4988   2.958   3.289   2.496  1.1472 -1.5640  0.7887
 1304SOL    HW3 4989   2.850   3.190   2.534 -0.7989  0.0517 -0.3573
 1304SOL    MW4 4990   2.909   3.251   2.556 -0.2365  0.4565  0.0458
 1305SOL     OW 4991   0.642   6.368   4.521 -0.3727  0.7239  0.3503
 1305SOL    HW2 4992   0.624   6.295   4.462  1.5185  0.8878 -0.5133
 1305SOL    HW3 4993   0.587   6.439   4.487  0.2424  0.6435 -0.9034
 1305SOL    MW4 4994   0.632   6.368   4.508 -0.3159  0.9568 -0.1441
 1306SOL     OW 4995   2.591   4.595   3.883  0.8828 -0.0807  0.0205
 1306SOL    HW2 4996   2.544   4.662   3.832 -0.5326 -0.3057  0.9756
 1306SOL    HW3 4997   2.679   4.630   3.893  0.3087  1.4092  0.0755
 1306SOL    MW4 4998   2.596   4.608   3.877  0.4230  0.1116  0.0444
 1307SOL     OW 4999   6.192   5.833   4.732 -0.3605  0.8670 -0.4838
 1307SOL    HW2 5000   6.144   5.878   4.662  0.0171  0.7072 -0.8538
 1307SOL    HW3 5001   6.231   5.903   4.784 -1.1214  1.0021 -0.0851
 1307SOL    MW4 5002   6.191   5.848   4.729  0.6776 -0.2280  0.4978
 1308SOL     OW 5003   2.927   4.852   4.543  0.8081 -0.4672 -0.0792
 1308SOL    HW2 5004   2.836   4.872   4.523  0.6877 -0.6599  0.2738
 1308SOL    HW3 5005   2.937   4.876   4.635  1.0927 -0.5228 -0.0958
 1308SOL    MW4 5006   2.916   4.858   4.553 -0.1573  0.3382 -0.1278
 1309SOL     OW 5007   6.113   2.805   1.629 -0.1827 -0.4520  0.1408
 1309SOL    HW2 5008   6.164   2.814   1.709  0.1115  0.1209 -0.1029
 1309SOL    HW3 5009   6.152   2.731   1.582  1.6712  1.1137 -0.9286
 1309SOL    MW4 5010   6.125   2.797   1.633  0.0075 -0.2304 -0.2653
 1310SOL     OW 5011   0.741   4.596   2.910  0.0562  0.4692 -0.1402
 1310SOL    HW2 5012   0.749   4.557   2.824 -0.2378 -0.3562  0.1995
 1310SOL    HW3 5013   0.812   4.660   2.914 -0.4747  1.1732 -1.3258
 1310SOL    MW4 5014   0.751   4.600   2.899 -0.4748  0.2230  0.0590
 1311SOL     OW 5015   0.276   6.226   1.948  0.2122 -0.1011  0.0390
 1311SOL    HW2 5016   0.225   6.173   2.009  1.4478  0.3413  1.5183
 1311SOL    HW3 5017   0.255   6.316   1.972 -0.4485  0.1088 -1.2345
 1311SOL    MW4 5018   0.266   6.231   1.959  0.0680  0.1953  0.0910
 1312SOL     OW 5019   1.522   2.582   4.129 -0.3318 -0.1710 -0.3217
 1312SOL    HW2 5020   1.474   2.616   4.054  1.6307 -2.3578 -2.7461
 1312SOL    HW3 5021   1.575   2.655   4.160  0.3090  0.2853 -2.3837
 1312SOL    MW4 5022   1.522   2.596   4.123  0.2257  0.2163  0.8801
 1313SOL     OW 5023   1.053   1.328   2.648 -0.1803 -0.5866 -0.0537
 1313SOL    HW2 5024   0.986   1.326   2.716  1.9337 -1.9985  2.1602
 1313SOL    HW3 5025   1.121   1.386   2.682  0.7442 -0.9573 -1.1676
 1313SOL    MW4 5026   1.053   1.335   2.661  0.0096 -0.4384 -0.3027
 1314SOL     OW 5027   3.444   5.097   0.032  0.0755  0.0958 -0.1757
 1314SOL    HW2 5028   3.350   5.091   0.011 -1.0334  3.3621  2.7422
 1314SOL    HW3 5029   3.466   5.189   0.017  1.6120  0.3867  3.0068
 1314SOL    MW4 5030   3.434   5.108   0.027 -0.3628  0.3058 -0.1044
 1315SOL     OW 5031   0.160   0.025   0.864  0.0574  0.2385  0.1237
 1315SOL    HW2 5032   0.184   0.007   0.773  1.9682  0.1897  0.5870
 1315SOL    HW3 5033   0.163  -0.061   0.907  1.5845  0.5522  0.7152
 1315SOL    MW4 5034   0.164   0.011   0.858  0.1223 -0.6974  0.0261
 1316SOL     OW 5035   4.018   2.062   4.564 -0.1166 -0.0828  0.1662
 1316SOL    HW2 5036   4.029   1.988   4.624  1.9948 -0.6698 -0.8698
 1316SOL    HW3 5037   3.940   2.040   4.512 -0.1652 -1.0210  0.6167
 1316SOL    MW4 5038   4.009   2.049   4.565  0.1634  0.3229  0.5790
 1317SOL     OW 5039   4.671   6.191   6.266  0.7210  0.3383  0.0384
 1317SOL    HW2 5040   4.737   6.216   6.201  0.0167  0.6109 -0.5802
 1317SOL    HW3 5041   4.631   6.273   6.293  0.2042  0.1214 -0.0562
 1317SOL    MW4 5042   4.674   6.205   6.261  0.6807 -0.2592  0.5315
 1318SOL     OW 5043   2.373   4.724   6.404 -0.2000  0.2979 -0.3547
 1318SOL    HW2 5044   2.414   4.738   6.489  0.5008 -0.0839 -0.6182
 1318SOL    HW3 5045   2.351   4.812   6.372 -3.4212  0.3649  1.5881
 1318SOL    MW4 5046   2.376   4.737   6.411  0.2789  0.3223  0.0586
 1319SOL     OW 5047   5.698   0.398   1.342 -0.5563  0.7624  0.2174
 1319SOL    HW2 5048   5.654   0.461   1.398 -1.2780  1.1549 -0.7567
 1319SOL    HW3 5049   5.769   0.448   1.301  1.1142  0.0394  2.0711
 1319SOL    MW4 5050   5.701   0.413   1.344  0.5991  0.1767 -0.0663
 1320SOL     OW 5051   2.728   3.234   6.217  0.2271  0.2458  0.7793
 1320SOL    HW2 5052   2.635   3.211   6.215  0.3434 -0.1884 -0.5032
 1320SOL    HW3 5053   2.771   3.162   6.172  1.1576  0.6228  1.0392
 1320SOL    MW4 5054   2.721   3.221   6.211  0.3713 -0.7238 -0.2459
 1321SOL     OW 5055   0.062   4.520   4.142 -0.1499 -0.4200 -0.3057
 1321SOL    HW2 5056  -0.018   4.517   4.195  0.4503 -0.1434  0.6352
 1321SOL    HW3 5057   0.133   4.507   4.204  0.5633 -0.4176 -1.0972
 1321SOL    MW4 5058   0.061   4.518   4.157  0.8114  0.0348 -0.3916
 1322SOL     OW 5059   4.042   2.552   0.821  0.5841 -0.2208 -0.4858
 1322SOL    HW2 5060   4.135   2.572   0.818  0.3347  1.1236  0.1142
 1322SOL    HW3 5061   3.999   2.627   0.779 -0.1810 -1.3253 -1.7506
 1322SOL    MW4 5062   4.049   2.564   0.815  0.2665  0.6025 -0.7807
 1323SOL     OW 5063   5.938   2.980   1.248  0.4469 -0.0813  0.1386
 1323SOL    HW2 5064   5.912   2.967   1.339 -0.5482 -0.4729 -0.1929
 1323SOL    HW3 5065   5.972   3.069   1.245  0.3480 -0.0183  0.8631
 1323SOL    MW4 5066   5.939   2.990   1.259  0.7957 -0.1522 -0.1193
 1324SOL     OW 5067   1.985   5.405   5.448  0.4962 -0.2761 -0.4759
 1324SOL    HW2 5068   1.926   5.474   5.475 -0.9992 -1.6221 -0.1773
 1324SOL    HW3 5069   1.929   5.330   5.430  2.0891 -1.6168 -0.1933
 1324SOL    MW4 5070   1.970   5.404   5.449 -0.1325 -0.4343  0.0037
 1325SOL     OW 5071   0.247   3.388   1.412 -0.6352 -0.2237 -0.5695
 1325SOL    HW2 5072   0.188   3.403   1.338 -0.5387  1.8588 -0.2968
 1325SOL    HW3 5073   0.191   3.357   1.483 -0.7219 -2.2694 -1.4790
 1325SOL    MW4 5074   0.232   3.386   1.412 -0.4171 -0.7525 -0.5709
 1326SOL     OW 5075   1.114   5.425   1.879 -0.2463  0.1016 -0.2669
 1326SOL    HW2 5076   1.110   5.343   1.831 -1.4033 -0.3865  0.6344
 1326SOL    HW3 5077   1.078   5.490   1.819 -0.7357 -0.3201 -0.4343
 1326SOL    MW4 5078   1.109   5.423   1.865  0.1132  0.0819  0.5825
 1327SOL     OW 5079   3.416   2.996   1.786 -0.0811  0.0883 -0.4653
 1327SOL    HW2 5080   3.392   3.085   1.814  0.2735  0.7880 -2.2372
 1327SOL    HW3 5081   3.479   3.010   1.715 -0.6781 -1.5548 -1.3586
 1327SOL    MW4 5082   3.421   3.010   1.780 -0.0865  0.0101 -0.0464
 1328SOL     OW 5083   4.025   4.297   3.586 -0.7431 -0.0352 -0.7281
 1328SOL    HW2 5084   4.102   4.334   3.631 -1.8020 -0.3062  1.4439
 1328SOL    HW3 5085   3.950   4.338   3.629 -1.8723 -1.9662 -0.7312
 1328SOL    MW4 5086   4.025   4.307   3.598  0.1334 -0.3917 -0.2743
 1329SOL     OW 5087   0.840   0.425   0.607 -0.2808  0.1860  0.0550
 1329SOL    HW2 5088   0.772   0.477   0.650 -0.8844 -0.0610 -0.5715
 1329SOL    HW3 5089   0.828   0.336   0.642  0.5076  0.3766  0.8440
 1329SOL    MW4 5090   0.829   0.420   0.617  0.1978  0.3244 -0.8161
 1330SOL     OW 5091   3.270   1.307   0.690 -0.3649 -0.6616  0.0265
 1330SOL    HW2 5092   3.326   1.358   0.631 -0.0422 -0.5280  0.4429
 1330SOL    HW3 5093   3.239   1.234   0.637  0.3599 -0.8413 -0.1544
 1330SOL    MW4 5094   3.273   1.304   0.675 -0.0311 -0.8570  0.1624
 1331SOL     OW 5095   0.198   4.954   0.656 -0.0328 -0.3787 -0.2334
 1331SOL    HW2 5096   0.122   4.909   0.694 -2.4681  1.2365 -2.7925
 1331SOL    HW3 5097   0.261   4.884   0.639 -1.8613 -2.1784 -0.0383
 1331SOL    MW4 5098   0.196   4.938   0.658  0.6143  0.2787  0.6381
 1332SOL     OW 5099   0.751   0.548   5.290  0.1219  0.0167  0.3488
 1332SOL    HW2 5100   0.839   0.511   5.302  1.9898  3.0767 -2.3454
 1332SOL    HW3 5101   0.701   0.477   5.250  2.1295 -1.0393 -0.4457
 1332SOL    MW4 5102   0.756   0.534   5.287  0.5385  0.9205  0.4717
 1333SOL     OW 5103   3.349   0.535   4.805  0.4206  0.0863  0.4860
 1333SOL    HW2 5104   3.347   0.451   4.850  1.1402  0.4938  1.2900
 1333SOL    HW3 5105   3.440   0.562   4.807  0.2713  0.6785 -0.1730
 1333SOL    MW4 5106   3.361   0.528   4.811  0.5012 -0.5740  0.0296
 1334SOL     OW 5107   5.031   4.025   2.419 -0.0462  0.0401 -0.2152
 1334SOL    HW2 5108   5.044   4.106   2.368  1.6887  1.3560  2.1019
 1334SOL    HW3 5109   4.937   4.022   2.435 -0.2094  1.3127 -0.7924
 1334SOL    MW4 5110   5.020   4.036   2.414 -0.1324 -0.2838 -0.3922
 1335SOL     OW 5111   5.363   1.761   4.834  0.2052 -0.2487  0.3327
 1335SOL    HW2 5112   5.373   1.796   4.922 -0.9718 -0.8161  0.7153
 1335SOL    HW3 5113   5.323   1.675   4.847 -3.3643  1.0412 -0.8611
 1335SOL    MW4 5114   5.359   1.754   4.848 -0.3068 -0.2250 -0.4725
 1336SOL     OW 5115   2.946   4.125   2.873  0.6582  0.2140 -0.1445
 1336SOL    HW2 5116   2.875   4.188   2.862  0.5645  0.2810  0.7606
 1336SOL    HW3 5117   2.905   4.040   2.856  0.5917  0.3299 -0.5719
 1336SOL    MW4 5118   2.931   4.122   2.869  0.2612 -0.4795  0.3476
 1337SOL     OW 5119   6.248   4.873   1.861  0.0464  0.2891  0.4876
 1337SOL    HW2 5120   6.317   4.936   1.881  0.5170 -0.2048  0.4468
 1337SOL    HW3 5121   6.194   4.872   1.940  1.4889 -1.1181  1.5262
 1337SOL    MW4 5122   6.250   4.881   1.874  0.4372 -0.4653 -0.3464
 1338SOL     OW 5123   6.383   2.180   3.673 -0.0628 -0.4287  0.6610
 1338SOL    HW2 5124   6.404   2.265   3.635 -2.3753 -0.4336 -0.8573
 1338SOL    HW3 5125   6.441   2.119   3.628 -0.5789 -0.0194 -0.6197
 1338SOL    MW4 5126   6.393   2.183   3.662 -0.2122  0.3819  0.6486
 1339SOL     OW 5127   0.382   3.495   5.785 -0.1106 -0.2497  0.0034
 1339SOL    HW2 5128   0.363   3.432   5.716  0.6306 -0.0610 -0.3817
 1339SOL    HW3 5129   0.296   3.523   5.817 -0.4671 -2.2162  0.9042
 1339SOL    MW4 5130   0.368   3.490   5.780  0.3818  0.0223 -0.2933
 1340SOL     OW 5131   3.794   3.675   2.400  0.3270  0.2892  0.1422
 1340SOL    HW2 5132   3.826   3.732   2.330  0.2302 -0.4394 -0.5096
 1340SOL    HW3 5133   3.701   3.663   2.381  0.6360 -1.2272 -0.5704
 1340SOL    MW4 5134   3.786   3.681   2.388  0.4040 -0.2658 -1.3662
 1341SOL     OW 5135   1.424   3.932   3.390  0.6699 -0.5898 -0.7096
 1341SOL    HW2 5136   1.372   3.998   3.343  1.3922 -1.2582 -2.5551
 1341SOL    HW3 5137   1.377   3.850   3.376 -0.2579 -0.5271  1.6306
 1341SOL    MW4 5138   1.411   3.930   3.382 -0.5263 -0.1652  0.3056
 1342SOL     OW 5139   5.088   0.833   3.933  0.2903  0.3113  0.1024
 1342SOL    HW2 5140   5.012   0.890   3.938  0.4071  0.6337 -1.3261
 1342SOL    HW3 5141   5.078   0.786   3.850  0.2587 -1.7025  1.1710
 1342SOL    MW4 5142   5.077   0.834   3.922  0.2747 -0.1471  0.4776
 1343SOL     OW 5143   5.862   0.032   0.555  0.6267 -0.1297  0.3949
 1343SOL    HW2 5144   5.770   0.044   0.579 -0.0832  0.7498 -2.4269
 1343SOL    HW3 5145   5.889   0.117   0.522  2.1001 -0.7033  0.0606
 1343SOL    MW4 5146   5.853   0.045   0.554  0.0406 -0.0983 -0.9389
 1344SOL     OW 5147   0.205   6.389   2.528  0.2919  0.2226  0.0609
 1344SOL    HW2 5148   0.217   6.460   2.464  1.6036 -0.1780 -0.1589
 1344SOL    HW3 5149   0.274   6.403   2.592  0.5804 -0.8584  0.0037
 1344SOL    MW4 5150   0.216   6.400   2.528 -0.1196  0.3116 -0.0702
 1345SOL     OW 5151   3.416   4.084   0.148 -0.0047  0.2785  0.4520
 1345SOL    HW2 5152   3.436   4.040   0.065 -2.6923  0.8660 -0.6300
 1345SOL    HW3 5153   3.443   4.175   0.133 -0.8926  0.4838  0.0007
 1345SOL    MW4 5154   3.422   4.091   0.135  0.4295 -0.1595  0.1956
 1346SOL     OW 5155   1.558   3.171   0.852  0.1913 -0.1408 -0.2884
 1346SOL    HW2 5156   1.549   3.093   0.797  0.7857 -0.6677  0.3345
 1346SOL    HW3 5157   1.482   3.168   0.910  1.2946 -1.4814  1.1911
 1346SOL    MW4 5158   1.547   3.160   0.852  0.1233 -0.4502 -0.3267
 1347SOL     OW 5159   1.704   4.926   2.536 -0.2268  0.8395 -0.1599
 1347SOL    HW2 5160   1.679   5.002   2.588  1.2196  0.0473  1.8454
 1347SOL    HW3 5161   1.797   4.937   2.520 -0.3218  0.2477 -1.2192
 1347SOL    MW4 5162   1.713   4.937   2.541 -0.0969 -0.3289  0.0830
 1348SOL     OW 5163   0.976   1.309   3.269  0.2603  0.6426  0.3581
 1348SOL    HW2 5164   0.920   1.300   3.347  0.2469  1.7912  0.5066
 1348SOL    HW3 5165   0.918   1.348   3.203  0.2072 -0.5566 -0.3160
 1348SOL    MW4 5166   0.961   1.313   3.271  0.5981  0.8232  0.5723
 1349SOL     OW 5167   3.154   5.115   0.207 -0.1093 -0.1906  0.3573
 1349SOL    HW2 5168   3.155   5.107   0.112  0.2815  1.9198  0.1315
 1349SOL    HW3 5169   3.063   5.097   0.232 -0.6022  0.8963 -0.6104
 1349SOL    MW4 5170   3.142   5.111   0.198  0.1655 -0.1383 -0.1865
 1350SOL     OW 5171   1.534   1.116   1.193 -0.3949  0.7238 -0.8549
 1350SOL    HW2 5172   1.516   1.063   1.270  0.4027  2.3619  0.5248
 1350SOL    HW3 5173   1.483   1.196   1.207  0.5855  1.4803 -1.5050
 1350SOL    MW4 5174   1.525   1.120   1.205  0.3596 -0.1673 -0.3190
 1351SOL     OW 5175   5.245   4.168   6.005  0.1161 -0.3217  0.2586
 1351SOL    HW2 5176   5.201   4.085   5.989  0.3419  0.0634 -3.1616
 1351SOL    HW3 5177   5.336   4.153   5.977  1.0817  0.1816  2.8536
 1351SOL    MW4 5178   5.251   4.155   5.999  0.3650 -0.3316  0.0869
 1352SOL     OW 5179   2.402   4.176   1.472  0.6767  0.4835 -0.2335
 1352SOL    HW2 5180   2.468   4.113   1.444  0.5100  0.5300 -0.7466
 1352SOL    HW3 5181   2.423   4.256   1.423  1.6188  1.2202  1.3076
 1352SOL    MW4 5182   2.413   4.178   1.462 -0.2363  0.3440 -0.1407
 1353SOL     OW 5183   3.136   5.456   1.495  0.6395  0.0726  0.5860
 1353SOL    HW2 5184   3.045   5.448   1.523  0.2919 -0.1402 -0.5776
 1353SOL    HW3 5185   3.165   5.366   1.480 -0.4277  0.2136 -3.5048
 1353SOL    MW4 5186   3.128   5.443   1.497 -0.0452  0.2803  0.0740
 1354SOL     OW 5187   0.554   2.679   5.427 -0.1725 -0.6396 -0.0051
 1354SOL    HW2 5188   0.475   2.673   5.374 -1.5330  1.2518  1.6615
 1354SOL    HW3 5189   0.608   2.744   5.383 -1.2527  0.8474  0.7538
 1354SOL    MW4 5190   0.551   2.687   5.414 -0.5023  0.3179  0.3554
 1355SOL     OW 5191   6.315   2.556   5.261 -0.6015 -0.0227 -0.1085
 1355SOL    HW2 5192   6.358   2.640   5.244 -1.4769  0.5278  0.3150
 1355SOL    HW3 5193   6.227   2.567   5.226 -0.1615 -1.4548 -1.8253
 1355SOL    MW4 5194   6.309   2.568   5.254 -0.5527 -0.5980  0.5678
 1356SOL     OW 5195   6.412   4.701   0.021  0.5071 -0.3190 -0.1434
 1356SOL    HW2 5196   6.471   4.716   0.095  0.5924 -2.9748  0.3951
 1356SOL    HW3 5197   6.468   4.711  -0.056  0.5152  2.0145  0.0847
 1356SOL    MW4 5198   6.427   4.705   0.020  0.3626  0.1800  0.0712
 1357SOL     OW 5199   0.515   3.899   0.272  0.0471  0.1301  0.2696
 1357SOL    HW2 5200   0.565   3.980   0.273  2.7538 -1.3610  2.3525
 1357SOL    HW3 5201   0.486   3.888   0.362 -1.7285 -0.4323 -0.3397
 1357SOL    MW4 5202   0.518   3.908   0.284 -0.1331 -0.1958  0.0422
 1358SOL     OW 5203   0.508   3.672   5.613  0.3532  0.1870 -0.0467
 1358SOL    HW2 5204   0.485   3.599   5.670 -0.5784 -1.2165 -2.1060
 1358SOL    HW3 5205   0.432   3.731   5.618  0.4178  0.2329  0.4017
 1358SOL    MW4 5206   0.495   3.671   5.621 -0.6177  0.0861  0.4913
 1359SOL     OW 5207   4.417   2.111   3.840  0.0258  0.5560 -0.2160
 1359SOL    HW2 5208   4.427   2.206   3.841  1.4831  0.4242 -0.2804
 1359SOL    HW3 5209   4.503   2.078   3.817 -0.2188 -0.8227  0.7134
 1359SOL    MW4 5210   4.429   2.119   3.837  0.1812 -0.3081  0.0210
 1360SOL     OW 5211   0.884   1.529   2.125  0.1754  0.1384 -0.0332
 1360SOL    HW2 5212   0.791   1.540   2.110  0.0115 -1.1232 -0.1105
 1360SOL    HW3 5213   0.890   1.458   2.190  1.0738 -0.3814 -0.6458
 1360SOL    MW4 5214   0.873   1.521   2.131  0.3203 -0.3319  1.1030
 1361SOL     OW 5215   5.505   4.363   3.837 -0.1458  0.3881 -1.6714
 1361SOL    HW2 5216   5.479   4.452   3.862 -0.9372 -0.5837  1.4977
 1361SOL    HW3 5217   5.597   4.370   3.811  0.5942  1.8180  1.0301
 1361SOL    MW4 5218   5.513   4.375   3.837 -0.1089 -0.1565 -0.3033
 1362SOL     OW 5219   0.154   0.367   0.944  0.1501 -0.1398  0.3178
 1362SOL    HW2 5220   0.166   0.306   0.872  1.2156  0.5025 -0.0739
 1362SOL    HW3 5221   0.069   0.345   0.981  0.0816 -1.1964 -0.4394
 1362SOL    MW4 5222   0.145   0.356   0.940 -0.2413 -0.4133  0.3858
 1363SOL     OW 5223   6.301   6.254   5.150 -0.0171 -0.4761  0.3188
 1363SOL    HW2 5224   6.318   6.308   5.227 -1.6344 -0.6462  0.8413
 1363SOL    HW3 5225   6.323   6.165   5.177 -2.1479 -0.7989  1.2161
 1363SOL    MW4 5226   6.306   6.249   5.164  0.1736 -0.5375  1.0566
 1364SOL     OW 5227   2.476   3.760   5.239 -0.1851  0.3345  0.6026
 1364SOL    HW2 5228   2.395   3.811   5.243 -0.3002  0.4891 -1.8518
 1364SOL    HW3 5229   2.498   3.757   5.145  0.6731 -2.7875  0.7831
 1364SOL    MW4 5230   2.468   3.766   5.227  0.2917  0.2536 -0.0116
 1365SOL     OW 5231   1.059   1.230   4.962  0.2818  0.2663  0.2329
 1365SOL    HW2 5232   1.073   1.206   4.870  0.8102  0.0041  0.3769
 1365SOL    HW3 5233   0.977   1.280   4.962 -0.0504 -0.2647 -0.2923
 1365SOL    MW4 5234   1.050   1.233   4.950 -0.3246 -0.0413 -0.1205
 1366SOL     OW 5235   5.241   5.774   4.008  0.2122 -0.1824 -0.2855
 1366SOL    HW2 5236   5.254   5.824   3.928  2.7623  1.6362  1.1290
 1366SOL    HW3 5237   5.187   5.830   4.063  2.6057  0.9030  1.0896
 1366SOL    MW4 5238   5.236   5.788   4.005  0.2189 -0.2428 -0.9343
 1367SOL     OW 5239   1.450   3.113   5.339  0.0680  0.7605 -0.5588
 1367SOL    HW2 5240   1.384   3.123   5.407  1.0669  3.5322  0.1363
 1367SOL    HW3 5241   1.528   3.155   5.375  1.1737  0.6888 -2.7045
 1367SOL    MW4 5242   1.452   3.120   5.353 -1.0323 -0.1463  0.3757
 1368SOL     OW 5243   1.633   1.461   4.886 -0.0083  0.1482  0.0340
 1368SOL    HW2 5244   1.577   1.526   4.928  1.7901  2.8897 -1.4964
 1368SOL    HW3 5245   1.599   1.453   4.797  0.9616  0.5305 -0.3845
 1368SOL    MW4 5246   1.621   1.468   4.880 -0.0237 -0.0059 -0.0742
 1369SOL     OW 5247   1.145   3.393   3.329 -0.2860 -0.4239  0.3058
 1369SOL    HW2 5248   1.188   3.323   3.379 -1.9854 -2.2199 -0.5801
 1369SOL    HW3 5249   1.071   3.419   3.383  0.2221  0.5620  0.5332
 1369SOL    MW4 5250   1.141   3.387   3.342 -0.0551  0.4778  0.6775
 1370SOL     OW 5251   4.159   5.589   2.318  0.7276 -0.0153  0.5083
 1370SOL    HW2 5252   4.126   5.631   2.397  1.3374  1.2169  0.1347
 1370SOL    HW3 5253   4.239   5.638   2.296 -0.7041  1.3442 -2.2156
 1370SOL    MW4 5254   4.165   5.601   2.325 -0.0081 -0.1894  1.0912
 1371SOL     OW 5255   5.389   2.728   4.612  0.0653  0.3746  0.2606
 1371SOL    HW2 5256   5.325   2.678   4.561  0.6462  0.5778 -0.7016
 1371SOL    HW3 5257   5.421   2.667   4.678  0.7514 -0.5368 -0.8753
 1371SOL    MW4 5258   5.385   2.714   4.614 -0.0572  0.5630 -0.3460
 1372SOL     OW 5259   6.173   6.297   0.902  0.0434 -0.4880  0.1208
 1372SOL    HW2 5260   6.102   6.318   0.962  1.1110  1.1617  0.8716
 1372SOL    HW3 5261   6.131   6.289   0.816 -1.2169 -0.9299  0.7533
 1372SOL    MW4 5262   6.158   6.299   0.898 -0.0355 -0.3353 -0.3751
 1373SOL     OW 5263   2.091   2.562   2.716  0.0721 -0.2404  0.1935
 1373SOL    HW2 5264   1.998   2.583   2.716  0.1452  0.1618 -0.9980
 1373SOL    HW3 5265   2.114   2.555   2.623  1.1674 -0.6172  0.4789
 1373SOL    MW4 5266   2.082   2.564   2.704  0.4726  0.4458 -0.0426
 1374SOL     OW 5267   4.063   5.676   5.943  0.0344  0.2695 -0.0426
 1374SOL    HW2 5268   3.997   5.729   5.988  0.8958  1.0378  0.3562
 1374SOL    HW3 5269   4.103   5.736   5.880 -1.3922 -0.8779 -2.1604
 1374SOL    MW4 5270   4.059   5.691   5.941 -0.2019  0.2074 -0.3013
 1375SOL     OW 5271   3.654   1.209   2.242  0.0530  0.5937  0.2259
 1375SOL    HW2 5272   3.635   1.271   2.172 -0.1164 -1.4041 -1.6085
 1375SOL    HW3 5273   3.741   1.173   2.219 -0.0040 -0.0863  1.0203
 1375SOL    MW4 5274   3.663   1.212   2.229  0.2360  0.0537 -0.1338
 1376SOL     OW 5275   5.586   5.829   0.731  0.5635  0.6083  0.0998
 1376SOL    HW2 5276   5.572   5.865   0.819  1.1301  0.5750  0.2099
 1376SOL    HW3 5277   5.628   5.744   0.746 -3.9177 -1.9228  0.0170
 1376SOL    MW4 5278   5.590   5.823   0.745 -0.4577 -0.6447 -0.2412
 1377SOL     OW 5279   3.207   3.661   0.267  0.2138 -0.4109  0.2482
 1377SOL    HW2 5280   3.142   3.681   0.335 -0.2752  0.5048 -0.4565
 1377SOL    HW3 5281   3.216   3.743   0.218 -1.0385 -1.5731 -2.1018
 1377SOL    MW4 5282   3.199   3.675   0.270  0.0220 -0.6120 -0.2887
 1378SOL     OW 5283   4.037   3.122   3.321 -0.1864 -0.0658  0.1598
 1378SOL    HW2 5284   4.084   3.039   3.322 -0.0818 -0.0107  1.3439
 1378SOL    HW3 5285   4.098   3.184   3.281 -0.1447 -0.4815 -0.4363
 1378SOL    MW4 5286   4.051   3.119   3.316 -0.5493  0.3412  0.1652
 1379SOL     OW 5287   0.391   0.205   0.147  0.1276 -0.0897  0.0961
 1379SOL    HW2 5288   0.451   0.130   0.158  0.5759  0.4210  1.3849
 1379SOL    HW3 5289   0.327   0.175   0.083  2.2499 -0.3444 -2.0647
 1379SOL    MW4 5290   0.390   0.191   0.140  0.8893  0.3329  0.6043
 1380SOL     OW 5291   0.472   2.843   5.107  0.1220 -0.0335  0.0367
 1380SOL    HW2 5292   0.391   2.881   5.141  0.5877  1.4493 -0.4420
 1380SOL    HW3 5293   0.466   2.750   5.129 -1.3913  0.1751  0.6101
 1380SOL    MW4 5294   0.460   2.836   5.115  0.3401 -0.3081 -0.1612
 1381SOL     OW 5295   6.337   4.124   2.714 -0.2817  0.1988 -0.1884
 1381SOL    HW2 5296   6.419   4.158   2.749 -0.8211  0.7422  0.6028
 1381SOL    HW3 5297   6.338   4.030   2.735 -1.1725  0.7167  2.6284
 1381SOL    MW4 5298   6.348   4.116   2.722  0.6150  0.1716 -0.3459
 1382SOL     OW 5299   4.903   4.898   1.080 -0.0886 -0.4276  0.7027
 1382SOL    HW2 5300   4.889   4.962   1.150  0.4969 -1.0176  1.3840
 1382SOL    HW3 5301   4.993   4.913   1.051 -0.4034 -0.0385 -0.0880
 1382SOL    MW4 5302   4.913   4.908   1.086  0.1088 -0.3755 -0.3217
 1383SOL     OW 5303   5.776   5.202   5.176 -0.0986  0.4610 -0.1148
 1383SOL    HW2 5304   5.762   5.281   5.124  1.0402  0.1751 -0.9035
 1383SOL    HW3 5305   5.854   5.161   5.137 -0.9217 -1.2964 -0.0272
 1383SOL    MW4 5306   5.785   5.207   5.164 -0.2944 -0.3632  0.0550
 1384SOL     OW 5307   5.108   1.061   3.677  0.3250  0.0368  0.2904
 1384SOL    HW2 5308   5.178   1.066   3.741  0.4468 -1.0280  0.2696
 1384SOL    HW3 5309   5.029   1.090   3.724  0.6592  0.6295  0.4926
 1384SOL    MW4 5310   5.107   1.065   3.692 -0.1931  0.4149 -0.0089
 1385SOL     OW 5311   3.104   0.663   0.212  0.3221 -0.2740  0.5537
 1385SOL    HW2 5312   3.135   0.652   0.123  0.2286  0.3157  0.4447
 1385SOL    HW3 5313   3.025   0.609   0.217 -0.8711  1.3113 -0.3615
 1385SOL    MW4 5314   3.098   0.655   0.201  0.5177 -0.2020 -0.3043
 1386SOL     OW 5315   0.177   3.541   3.164  0.1052 -0.1261 -0.7227
 1386SOL    HW2 5316   0.126   3.609   3.121 -1.0217  0.0822  0.8615
 1386SOL    HW3 5317   0.145   3.540   3.254  0.8582 -2.0014 -0.4247
 1386SOL    MW4 5318   0.166   3.550   3.170  0.8178  0.1276 -0.0522
 1387SOL     OW 5319   1.271   5.157   0.110  0.1078 -0.3314  0.1721
 1387SOL    HW2 5320   1.348   5.105   0.132  0.5908  0.0135 -0.6838
 1387SOL    HW3 5321   1.198   5.094   0.114  0.4205 -0.6597  0.9690
 1387SOL    MW4 5322   1.272   5.142   0.114 -0.0790 -0.4123  0.8659
 1388SOL     OW 5323   1.978   4.364   3.526 -0.1152  0.2168  0.2531
 1388SOL    HW2 5324   2.070   4.338   3.533  0.0723  0.9172  0.4820
 1388SOL    HW3 5325   1.946   4.360   3.616 -0.6183 -1.0744  0.0429
 1388SOL    MW4 5326   1.986   4.360   3.539  0.1359  0.1161  0.0442
 1389SOL     OW 5327   3.286   3.473   3.587  0.0210 -0.3157  0.2453
 1389SOL    HW2 5328   3.313   3.411   3.520  1.7524 -0.3018  0.8601
 1389SOL    HW3 5329   3.365   3.486   3.640  0.2387  3.4485 -0.6630
 1389SOL    MW4 5330   3.300   3.467   3.585 -0.2195 -0.4565 -0.0064
 1390SOL     OW 5331   0.245   2.615   0.628  0.0374 -0.5183  0.1531
 1390SOL    HW2 5332   0.206   2.533   0.656 -0.8393 -0.7418 -1.6010
 1390SOL    HW3 5333   0.173   2.678   0.628  0.3379 -0.1666 -0.1256
 1390SOL    MW4 5334   0.230   2.612   0.631 -0.6378  0.1301 -0.4386
 1391SOL     OW 5335   0.537   3.001   2.460 -0.2332 -0.5375 -0.1418
 1391SOL    HW2 5336   0.541   2.943   2.384 -0.8883 -0.0385 -0.5705
 1391SOL    HW3 5337   0.496   3.081   2.426 -0.7443 -0.3944  0.7995
 1391SOL    MW4 5338   0.532   3.004   2.445  0.4544 -0.2420 -0.1881
 1392SOL     OW 5339   1.066   0.319   5.025 -0.2422 -0.4406  0.7494
 1392SOL    HW2 5340   1.004   0.267   5.076 -1.0935 -1.5306 -1.2508
 1392SOL    HW3 5341   1.132   0.256   4.997 -0.0822 -0.0009  0.1134
 1392SOL    MW4 5342   1.066   0.304   5.028 -0.0710  0.3809 -0.4057
 1393SOL     OW 5343   2.056   4.024   2.018 -0.0216 -0.2716  0.1418
 1393SOL    HW2 5344   2.128   3.986   1.968  0.1698  0.6373 -0.2838
 1393SOL    HW3 5345   1.978   4.004   1.966 -0.0666 -1.0723  0.4979
 1393SOL    MW4 5346   2.055   4.016   2.004 -0.2252  0.4472 -0.0365
 1394SOL     OW 5347   3.195   6.215   4.797  0.2022 -0.2994 -0.4047
 1394SOL    HW2 5348   3.170   6.261   4.877 -0.1471 -1.6839  0.3174
 1394SOL    HW3 5349   3.158   6.268   4.727 -1.4251 -0.2201  0.4597
 1394SOL    MW4 5350   3.186   6.228   4.798 -0.1639  0.0267  0.3128
 1395SOL     OW 5351   1.462   4.126   1.372  0.3450 -0.1439 -0.5094
 1395SOL    HW2 5352   1.431   4.204   1.419 -0.0069 -0.7977  0.3777
 1395SOL    HW3 5353   1.538   4.097   1.422  1.3384  0.4155 -1.6505
 1395SOL    MW4 5354   1.468   4.133   1.385 -0.1541  0.0904  0.4155
 1396SOL     OW 5355   4.257   3.840   6.214 -0.0879 -0.0798 -0.8182
 1396SOL    HW2 5356   4.190   3.860   6.148  0.5025  1.9060 -0.8947
 1396SOL    HW3 5357   4.261   3.919   6.268 -1.0047 -1.8856  2.0598
 1396SOL    MW4 5358   4.249   3.853   6.212  0.0290 -0.0975 -0.0018
 1397SOL     OW 5359   3.528   4.487   6.215  0.1978 -0.1293 -0.6102
 1397SOL    HW2 5360   3.478   4.569   6.215 -0.5428 -0.5389  0.7397
 1397SOL    HW3 5361   3.606   4.506   6.268 -1.4742 -1.0510  2.4475
 1397SOL    MW4 5362   3.532   4.500   6.222  0.1364  0.0008 -0.0184
 1398SOL     OW 5363   3.764   5.156   3.632  0.2101 -0.5576  0.4765
 1398SOL    HW2 5364   3.689   5.199   3.671 -0.1483  0.2690 -1.0326
 1398SOL    HW3 5365   3.747   5.063   3.642 -1.5092 -0.4035 -0.6698
 1398SOL    MW4 5366   3.752   5.150   3.638  0.3319 -0.2726 -0.2316
 1399SOL     OW 5367   3.138   1.589   2.067 -0.5680 -0.5755  0.1822
 1399SOL    HW2 5368   3.071   1.656   2.056 -1.6739 -1.9302 -1.9438
 1399SOL    HW3 5369   3.112   1.541   2.146 -1.4361 -0.3326  0.0528
 1399SOL    MW4 5370   3.126   1.591   2.076 -0.5228  0.4265 -0.1156
 1400SOL     OW 5371   3.097   2.044   3.280  0.1512 -0.3838 -0.0933
 1400SOL    HW2 5372   3.042   2.100   3.335  2.2748  0.3632  1.3841
 1400SOL    HW3 5373   3.131   2.103   3.213 -1.1765 -0.9638 -1.3458
 1400SOL    MW4 5374   3.094   2.059   3.278 -0.0531 -0.3654  0.3138
 1401SOL     OW 5375   2.080   3.442   5.897  0.0248  0.1977 -0.0550
 1401SOL    HW2 5376   2.112   3.524   5.860 -2.2599  1.4808  0.6475
 1401SOL    HW3 5377   2.085   3.380   5.824 -1.5901  1.9039 -1.7347
 1401SOL    MW4 5378   2.085   3.445   5.883 -0.5813  0.6678 -0.6527
 1402SOL     OW 5379   4.712   3.899   4.169  0.2671  0.0429  0.3079
 1402SOL    HW2 5380   4.787   3.927   4.220 -0.2512  0.9370  0.5966
 1402SOL    HW3 5381   4.663   3.979   4.151  0.3000 -0.2717 -1.3923
 1402SOL    MW4 5382   4.715   3.913   4.173 -0.4768 -0.3502  0.4166
 1403SOL     OW 5383   0.651   2.550   5.656 -0.0334  0.0027  0.5574
 1403SOL    HW2 5384   0.680   2.464   5.627  0.1350  0.7358 -1.6655
 1403SOL    HW3 5385   0.620   2.592   5.576 -1.4569  1.4960  1.8264
 1403SOL    MW4 5386   0.650   2.544   5.641 -0.1835  0.0096  0.8143
 1404SOL     OW 5387   5.739   1.101   4.982 -0.2129  0.2941  0.3157
 1404SOL    HW2 5388   5.675   1.164   4.950  0.0511  0.0292 -0.7589
 1404SOL    HW3 5389   5.687   1.029   5.017 -0.5167  0.0478 -0.6130
 1404SOL    MW4 5390   5.724   1.100   4.983 -0.3014 -0.2699  0.3707
 1405SOL     OW 5391   0.987   5.694   5.829  0.0221 -0.1071  0.4311
 1405SOL    HW2 5392   0.947   5.692   5.916  1.3274  0.6455  1.0778
 1405SOL    HW3 5393   0.938   5.629   5.779 -0.9078 -0.3917  1.6574
 1405SOL    MW4 5394   0.976   5.685   5.834  0.5177  1.2361  0.1491
 1406SOL     OW 5395   4.322   3.503   6.320  0.1524 -0.3566 -0.4673
 1406SOL    HW2 5396   4.287   3.540   6.401  2.1044 -1.0224  0.7441
 1406SOL    HW3 5397   4.397   3.559   6.299 -0.6937  0.2133 -2.2362
 1406SOL    MW4 5398   4.327   3.516   6.328 -0.7890 -0.2912  0.3762
 1407SOL     OW 5399   1.564   2.345   6.218  0.0544  0.2005 -0.3182
 1407SOL    HW2 5400   1.641   2.401   6.231 -0.3286  0.7057 -0.2113
 1407SOL    HW3 5401   1.562   2.289   6.296  1.0894 -0.7588 -0.9523
 1407SOL    MW4 5402   1.574   2.345   6.230  0.4198 -0.6258  0.0169
 1408SOL     OW 5403   2.603   2.028   4.863  0.2894  0.5398  0.4431
 1408SOL    HW2 5404   2.688   2.030   4.818  0.3339  0.1478  0.5080
 1408SOL    HW3 5405   2.621   1.983   4.945  0.1565  1.0457  0.7522
 1408SOL    MW4 5406   2.617   2.023   4.868  0.2984  0.0571 -0.0335
 1409SOL     OW 5407   1.159   0.231   0.509  0.5112 -0.7579  0.1047
 1409SOL    HW2 5408   1.101   0.158   0.529  0.1644 -0.6893 -0.6382
 1409SOL    HW3 5409   1.191   0.260   0.595 -2.1625  0.5354  0.7649
 1409SOL    MW4 5410   1.155   0.225   0.523  0.3648  0.5119 -0.0893
 1410SOL     OW 5411   5.719   6.264   0.365 -0.0672  0.3781  0.1883
 1410SOL    HW2 5412   5.783   6.298   0.427  0.0876  0.8575 -0.2361
 1410SOL    HW3 5413   5.762   6.189   0.324 -0.4564 -0.4355  1.2166
 1410SOL    MW4 5414   5.733   6.258   0.368 -0.0570 -0.1246 -0.4282
 1411SOL     OW 5415   2.541   4.842   0.826  0.1782  0.7090  0.2285
 1411SOL    HW2 5416   2.454   4.832   0.866 -0.9106 -1.8449 -2.4366
 1411SOL    HW3 5417   2.525   4.890   0.745  1.5262  1.4622  0.3829
 1411SOL    MW4 5418   2.528   4.847   0.821  0.2802 -0.5988  0.0651
 1412SOL     OW 5419   1.608   4.696   4.532 -0.2523 -0.2505  0.3807
 1412SOL    HW2 5420   1.683   4.722   4.478 -1.9649  1.5111 -1.3136
 1412SOL    HW3 5421   1.646   4.637   4.598  2.5875  0.5219 -0.3915
 1412SOL    MW4 5422   1.623   4.691   4.534  0.2327  0.5607  0.5312
 1413SOL     OW 5423   4.199   0.688   5.759 -0.0396  0.2177  0.5336
 1413SOL    HW2 5424   4.222   0.603   5.722 -0.8263 -1.1853  3.0234
 1413SOL    HW3 5425   4.160   0.736   5.686  1.8961 -0.8990 -1.3470
 1413SOL    MW4 5426   4.197   0.683   5.745 -0.0294  0.7403  0.3644
 1414SOL     OW 5427   4.667   4.664   0.506  0.0285  0.5178  0.4039
 1414SOL    HW2 5428   4.690   4.572   0.491 -0.6823  0.4021  0.0077
 1414SOL    HW3 5429   4.720   4.689   0.582  2.3614  0.6132 -1.1414
 1414SOL    MW4 5430   4.677   4.655   0.514 -0.3948  0.2268 -0.9746
 1415SOL     OW 5431   3.641   4.209   5.839 -0.2238 -0.4098 -0.2319
 1415SOL    HW2 5432   3.634   4.284   5.899 -3.3665 -0.0281 -0.9332
 1415SOL    HW3 5433   3.590   4.140   5.881  0.4525 -1.3163 -0.8576
 1415SOL    MW4 5434   3.634   4.210   5.853  0.0750  0.2899 -0.1299
 1416SOL     OW 5435   6.061   0.995   2.658 -0.0730 -0.5325 -0.3636
 1416SOL    HW2 5436   6.080   0.901   2.663  1.2041 -0.2974 -0.4764
 1416SOL    HW3 5437   6.147   1.036   2.650 -0.5217  0.7511  1.0833
 1416SOL    MW4 5438   6.075   0.988   2.657 -0.2557  0.4320  0.0539
 1417SOL     OW 5439   3.709   3.935   5.442  0.1473 -0.0156  0.0353
 1417SOL    HW2 5440   3.691   3.904   5.353  1.2858 -3.0399  0.7395
 1417SOL    HW3 5441   3.628   3.920   5.489  0.2911 -0.7411  0.0595
 1417SOL    MW4 5442   3.696   3.929   5.436 -0.0149  0.1832 -0.1793
 1418SOL     OW 5443   0.261   0.091   6.081 -1.1515  0.2642 -0.2737
 1418SOL    HW2 5444   0.226   0.179   6.074 -0.6529  0.4947  0.0967
 1418SOL    HW3 5445   0.184   0.034   6.074 -1.3951  0.6927 -1.2160
 1418SOL    MW4 5446   0.246   0.095   6.080 -0.5003 -0.1251 -0.1838
 1419SOL     OW 5447   6.389   2.357   6.358 -0.4724  0.4430 -1.0229
 1419SOL    HW2 5448   6.344   2.298   6.419 -1.7788  1.3193 -1.1080
 1419SOL    HW3 5449   6.360   2.444   6.383 -0.4527  0.8793 -2.4215
 1419SOL    MW4 5450   6.379   2.360   6.369 -1.0473  0.0485 -0.6397
 1420SOL     OW 5451   5.322   4.282   0.253 -0.1482 -0.6257  0.2159
 1420SOL    HW2 5452   5.331   4.220   0.325  0.1301  0.6794  1.3310
 1420SOL    HW3 5453   5.411   4.316   0.239 -0.6553  1.3305  1.3113
 1420SOL    MW4 5454   5.335   4.278   0.260  0.0942  0.0329 -0.2578
 1421SOL     OW 5455   5.526   0.743   0.493 -0.1264 -0.3767 -0.4055
 1421SOL    HW2 5456   5.474   0.663   0.492 -0.5707 -0.1241  0.7317
 1421SOL    HW3 5457   5.612   0.716   0.523  0.6514 -0.9010 -2.8719
 1421SOL    MW4 5458   5.530   0.729   0.497 -0.5846 -0.4767 -0.2194
 1422SOL     OW 5459   4.346   2.358   3.473  0.6830  0.6000 -0.2672
 1422SOL    HW2 5460   4.367   2.438   3.424  1.0095  0.1250 -0.9166
 1422SOL    HW3 5461   4.257   2.372   3.505  0.8178  1.3139 -0.1946
 1422SOL    MW4 5462   4.337   2.370   3.471  0.3707  0.2794 -0.1192
 1423SOL     OW 5463   0.224   2.647   5.329  0.2103  0.6207  0.0619
 1423SOL    HW2 5464   0.182   2.611   5.407 -1.2626  0.6631 -0.6589
 1423SOL    HW3 5465   0.164   2.717   5.300  0.3422  0.1461 -1.4737
 1423SOL    MW4 5466   0.210   2.652   5.335 -0.5070 -0.5211  0.5937
 1424SOL     OW 5467   4.631   5.048   5.936 -0.2743  0.1228  0.8188
 1424SOL    HW2 5468   4.543   5.082   5.916 -0.5203 -0.8404  0.1712
 1424SOL    HW3 5469   4.617   4.988   6.009  0.0095  0.6814  1.3412
 1424SOL    MW4 5470   4.617   5.045   5.943  0.2861  0.0217  0.2342
 1425SOL     OW 5471   5.503   5.779   3.271 -0.1165 -0.5458 -0.1048
 1425SOL    HW2 5472   5.598   5.790   3.280 -0.3700  2.8775 -0.1029
 1425SOL    HW3 5473   5.467   5.813   3.353 -1.3892  0.3422 -0.9866
 1425SOL    MW4 5474   5.511   5.785   3.283 -0.0325  0.0392 -0.4434
 1426SOL     OW 5475   2.137   5.458   1.818 -0.0273  0.3947  0.4295
 1426SOL    HW2 5476   2.205   5.430   1.880 -2.1316 -1.8541  1.9453
 1426SOL    HW3 5477   2.124   5.550   1.838  1.5368  0.5167  1.1149
 1426SOL    MW4 5478   2.145   5.466   1.829  0.2432 -0.1325 -0.0258
 1427SOL     OW 5479   5.131   1.881   1.632  0.3215  0.1880  0.1479
 1427SOL    HW2 5480   5.038   1.893   1.651  0.3933  3.1925 -0.8351
 1427SOL    HW3 5481   5.132   1.814   1.562 -1.1107  0.2665  0.0133
 1427SOL    MW4 5482   5.119   1.873   1.625 -0.2338  0.5994  0.1089
 1428SOL     OW 5483   5.466   3.635   5.267  0.0791 -0.4073 -0.5989
 1428SOL    HW2 5484   5.546   3.627   5.216 -0.2993 -1.1482 -1.1000
 1428SOL    HW3 5485   5.396   3.635   5.202 -0.4069 -1.3433 -0.1070
 1428SOL    MW4 5486   5.467   3.634   5.252  0.3353 -0.3663 -0.2932
 1429SOL     OW 5487   5.405   3.379   0.002  0.1569 -0.0151 -0.4550
 1429SOL    HW2 5488   5.333   3.398  -0.058 -0.7911 -0.9723  0.3290
 1429SOL    HW3 5489   5.366   3.319   0.067  1.3944  0.2462  0.5578
 1429SOL    MW4 5490   5.390   3.373   0.003  0.2016  0.2194  0.0540
 1430SOL     OW 5491   1.041   0.242   2.082 -0.6663  0.2124  0.1416
 1430SOL    HW2 5492   1.009   0.208   1.999 -2.2629  1.0469  0.3707
 1430SOL    HW3 5493   1.023   0.173   2.146  2.0619 -1.1222 -0.3989
 1430SOL    MW4 5494   1.035   0.229   2.080 -0.3767 -0.2068  0.9064
 1431SOL     OW 5495   0.990   6.083   5.079  0.0969  0.0385  0.0349
 1431SOL    HW2 5496   0.913   6.056   5.130 -0.4855  0.9958 -0.3154
 1431SOL    HW3 5497   0.994   6.021   5.007 -1.0249  0.6555 -0.5764
 1431SOL    MW4 5498   0.980   6.071   5.076 -0.2083  0.4778 -0.1381
 1432SOL     OW 5499   2.957   6.078   2.146  0.1841 -0.3009  0.0697
 1432SOL    HW2 5500   2.993   6.160   2.181  0.1714  0.4097 -1.4992
 1432SOL    HW3 5501   2.978   6.012   2.212  1.4049  0.7143  0.7325
 1432SOL    MW4 5502   2.965   6.080   2.159 -0.1993  0.1150 -0.0220
 1433SOL     OW 5503   0.738   4.362   0.219 -0.1487  0.3953  0.1992
 1433SOL    HW2 5504   0.658   4.400   0.184 -0.1634 -0.6939 -1.0116
 1433SOL    HW3 5505   0.710   4.281   0.261  0.1969  0.5397  0.7284
 1433SOL    MW4 5506   0.724   4.356   0.220  0.1829 -0.3969 -0.1278
 1434SOL     OW 5507   0.601   4.894   5.621 -0.1789 -0.0439 -0.1407
 1434SOL    HW2 5508   0.655   4.857   5.691  1.0802  0.7890 -0.6493
 1434SOL    HW3 5509   0.658   4.897   5.545 -0.9758  0.7638 -0.7284
 1434SOL    MW4 5510   0.616   4.889   5.620  0.0175 -0.2744 -0.2108
 1435SOL     OW 5511   6.357   0.662   5.907 -0.6876  0.2239  0.0156
 1435SOL    HW2 5512   6.299   0.653   5.982 -1.0999 -0.4021 -0.3721
 1435SOL    HW3 5513   6.302   0.643   5.831 -0.8118  2.7895 -0.6439
 1435SOL    MW4 5514   6.342   0.658   5.907 -0.2143 -0.3507  0.3610
 1436SOL     OW 5515   2.612   2.630   5.477  0.1272 -0.1901 -0.1147
 1436SOL    HW2 5516   2.648   2.718   5.486 -3.2904  1.2175  1.1433
 1436SOL    HW3 5517   2.569   2.630   5.391  2.1470 -1.5670 -1.2242
 1436SOL    MW4 5518   2.611   2.641   5.467 -0.0327 -0.3420 -0.0408
 1437SOL     OW 5519   2.136   1.849   3.685  0.1875  0.0065  0.3112
 1437SOL    HW2 5520   2.197   1.921   3.668  1.4761 -1.1558 -0.2574
 1437SOL    HW3 5521   2.064   1.863   3.624  0.0864  1.1741  0.6783
 1437SOL    MW4 5522   2.135   1.860   3.675  0.0565  0.0517  0.2274
 1438SOL     OW 5523   4.440   5.440   2.030  0.2760  0.1422  0.3004
 1438SOL    HW2 5524   4.465   5.407   2.116 -0.8790 -0.0186  0.5977
 1438SOL    HW3 5525   4.472   5.530   2.028 -0.6120  0.4990  1.3289
 1438SOL    MW4 5526   4.447   5.447   2.041 -0.6298  0.4632 -0.2574
 1439SOL     OW 5527   6.108   5.471   2.825  0.0759  0.7623  0.0497
 1439SOL    HW2 5528   6.181   5.463   2.763 -1.2261 -2.0183 -1.3297
 1439SOL    HW3 5529   6.031   5.485   2.769 -0.7080  1.9149  1.3453
 1439SOL    MW4 5530   6.107   5.472   2.809 -0.2243  0.3736  0.4210
 1440SOL     OW 5531   1.097   6.214   0.388 -0.6000  0.0183  0.3473
 1440SOL    HW2 5532   1.015   6.173   0.358 -0.2427 -1.7391  1.6316
 1440SOL    HW3 5533   1.098   6.299   0.344 -1.4148 -1.2920 -2.4578
 1440SOL    MW4 5534   1.086   6.220   0.378 -0.3285  0.3621 -0.4111
 1441SOL     OW 5535   1.210   0.042   2.927 -0.5188  0.2652 -0.0572
 1441SOL    HW2 5536   1.163  -0.035   2.895 -0.6031  1.2458 -2.5255
 1441SOL    HW3 5537   1.143   0.095   2.970 -0.6126 -0.6206  0.9462
 1441SOL    MW4 5538   1.195   0.039   2.928 -0.2116  0.3059  0.8165
 1442SOL     OW 5539   2.162   0.273   0.069  0.4788 -0.5814 -0.6641
 1442SOL    HW2 5540   2.215   0.324   0.008  0.0813  0.3885 -0.2103
 1442SOL    HW3 5541   2.217   0.266   0.147  1.0603 -1.9709 -1.1566
 1442SOL    MW4 5542   2.177   0.279   0.071 -0.2620 -0.1413 -0.1276
 1443SOL     OW 5543   5.182   3.631   3.950 -0.1173 -0.1734  0.2448
 1443SOL    HW2 5544   5.207   3.581   3.873 -1.7164 -0.1836 -0.3219
 1443SOL    HW3 5545   5.090   3.654   3.934 -0.5433 -0.3192  2.2310
 1443SOL    MW4 5546   5.173   3.628   3.938 -0.8218 -0.2230 -0.5207
 1444SOL     OW 5547   4.718   2.536   4.364  0.0983 -0.7080 -0.4109
 1444SOL    HW2 5548   4.660   2.511   4.435 -0.0703 -0.1658 -0.3512
 1444SOL    HW3 5549   4.806   2.511   4.394  0.1787  0.5617  0.5018
 1444SOL    MW4 5550   4.722   2.529   4.377  0.2918 -0.3119 -0.6245
 1445SOL     OW 5551   4.207   4.970   4.362 -0.2814  0.2310 -0.2924
 1445SOL    HW2 5552   4.212   5.007   4.274 -0.9643 -0.5869 -0.6865
 1445SOL    HW3 5553   4.261   5.028   4.415 -0.2915  1.0416 -1.1433
 1445SOL    MW4 5554   4.215   4.982   4.357  0.1153  0.3058 -0.3585
 1446SOL     OW 5555   3.984   5.078   4.797 -0.0443 -1.2556 -0.1720
 1446SOL    HW2 5556   3.946   5.075   4.885 -0.0318 -1.6822 -0.1785
 1446SOL    HW3 5557   3.960   4.994   4.758 -1.4953 -0.4294 -1.1915
 1446SOL    MW4 5558   3.976   5.067   4.803 -0.2911 -0.1867 -0.3190
 1447SOL     OW 5559   3.753   0.514   2.975 -0.1496  0.6899 -0.2686
 1447SOL    HW2 5560   3.740   0.455   3.049 -0.9014  2.9484  1.4818
 1447SOL    HW3 5561   3.668   0.515   2.930 -1.1258  2.6973  1.4894
 1447SOL    MW4 5562   3.740   0.506   2.979 -0.6213  0.1982 -0.9506
 1448SOL     OW 5563   2.215   1.145   2.398  1.0122  0.1459 -0.1816
 1448SOL    HW2 5564   2.238   1.053   2.385 -0.4227 -0.4081  0.9987
 1448SOL    HW3 5565   2.257   1.191   2.325  0.1289 -1.6875 -1.9203
 1448SOL    MW4 5566   2.224   1.139   2.387 -0.5723  0.4627  0.2550
 1449SOL     OW 5567   4.954   0.527   2.995  0.1273  0.5589 -0.7047
 1449SOL    HW2 5568   5.025   0.482   2.950 -1.0242 -1.1059 -0.9569
 1449SOL    HW3 5569   4.966   0.620   2.973  2.0616  0.2955 -0.9105
 1449SOL    MW4 5570   4.965   0.534   2.986  0.1640  0.1805 -0.4452
 1450SOL     OW 5571   2.891   5.718   6.176 -0.1116  0.3084  0.3307
 1450SOL    HW2 5572   2.959   5.731   6.109 -1.6278 -1.7701 -1.7925
 1450SOL    HW3 5573   2.847   5.802   6.182  0.3315  0.6702 -1.0471
 1450SOL    MW4 5574   2.895   5.730   6.168  0.1749 -0.0965 -0.1283
 1451SOL     OW 5575   5.770   3.822   2.066 -0.5635 -0.5482  0.2936
 1451SOL    HW2 5576   5.788   3.770   1.987 -1.2478 -3.1081  1.6891
 1451SOL    HW3 5577   5.742   3.907   2.033 -0.6971 -1.4840 -2.2338
 1451SOL    MW4 5578   5.769   3.826   2.051  0.1484  0.5355  0.0527
 1452SOL     OW 5579   1.967   0.345   0.599 -0.0845  0.2601 -0.2875
 1452SOL    HW2 5580   1.954   0.307   0.685  1.2060 -1.1110 -0.6627
 1452SOL    HW3 5581   1.958   0.271   0.538 -2.1237  1.3727 -1.4826
 1452SOL    MW4 5582   1.964   0.330   0.602 -0.5024 -0.1750  0.3659
 1453SOL     OW 5583   5.111   3.016   5.958  0.0153  0.0592 -0.4779
 1453SOL    HW2 5584   5.131   2.925   5.937  0.1347 -0.3719  1.3164
 1453SOL    HW3 5585   5.054   3.045   5.887  0.9716 -1.0069 -1.7454
 1453SOL    MW4 5586   5.106   3.008   5.946  0.7165  0.3340  0.2521
 1454SOL     OW 5587   4.301   1.845   6.171  0.2047  0.5187  0.2057
 1454SOL    HW2 5588   4.272   1.896   6.247  1.2452  0.7118  0.4848
 1454SOL    HW3 5589   4.239   1.869   6.101 -0.0766  1.2067  0.6791
 1454SOL    MW4 5590   4.289   1.855   6.172  0.4049  0.1995  0.0112
 1455SOL     OW 5591   3.983   1.935   2.092  0.3135 -0.4300 -0.2292
 1455SOL    HW2 5592   3.978   1.873   2.019  3.0744 -0.3202 -0.6127
 1455SOL    HW3 5593   4.017   2.015   2.054  1.0649 -0.1132  1.0458
 1455SOL    MW4 5594   3.986   1.937   2.078  0.0654  0.5997  0.0156
 1456SOL     OW 5595   3.368   3.740   1.744 -0.1698  0.2300 -0.7175
 1456SOL    HW2 5596   3.284   3.698   1.761  1.0082 -2.1561 -0.3822
 1456SOL    HW3 5597   3.408   3.748   1.831  0.5385 -0.0075 -1.0199
 1456SOL    MW4 5598   3.362   3.736   1.758  0.2313 -0.0976 -0.0298
 1457SOL     OW 5599   4.871   1.817   1.973  0.2339  0.0726  0.0732
 1457SOL    HW2 5600   4.965   1.807   1.986 -0.0919 -0.8715  1.8470
 1457SOL    HW3 5601   4.844   1.878   2.042 -0.5486 -0.0844 -0.0914
 1457SOL    MW4 5602   4.880   1.824   1.984  0.1873  0.6624  0.3897
 1458SOL     OW 5603   2.367   0.854   0.300  0.0390  0.0103 -0.0725
 1458SOL    HW2 5604   2.285   0.872   0.254  0.3574 -1.5168 -1.3408
 1458SOL    HW3 5605   2.429   0.831   0.230  0.5840 -2.2496  1.0611
 1458SOL    MW4 5606   2.364   0.853   0.284 -0.5060 -0.4486 -0.3542
 1459SOL     OW 5607   0.347   3.798   2.891  0.6056  0.9565  0.2115
 1459SOL    HW2 5608   0.394   3.744   2.954 -0.4844 -0.2678  0.0123
 1459SOL    HW3 5609   0.255   3.789   2.914 -0.2435 -2.1852 -3.3310
 1459SOL    MW4 5610   0.341   3.789   2.902  0.0637  0.1976  0.4102
 1460SOL     OW 5611   5.872   0.355   1.819  0.2156  0.0127  0.2244
 1460SOL    HW2 5612   5.896   0.311   1.900 -1.9448 -0.7444  0.5003
 1460SOL    HW3 5613   5.820   0.430   1.846  1.7667  1.3528 -0.3758
 1460SOL    MW4 5614   5.869   0.359   1.833 -0.3952  0.8800 -0.4088
 1461SOL     OW 5615   3.701   4.756   1.165 -0.4888  0.2183 -0.3523
 1461SOL    HW2 5616   3.637   4.785   1.229  0.1280  2.4186 -0.6489
 1461SOL    HW3 5617   3.694   4.820   1.094  1.0696 -0.2979 -1.0096
 1461SOL    MW4 5618   3.692   4.768   1.164  0.2398  0.7285  0.6561
 1462SOL     OW 5619   0.056   1.794   4.416 -0.0041 -0.0511 -0.3165
 1462SOL    HW2 5620   0.111   1.756   4.347  2.1194 -0.1685  1.3376
 1462SOL    HW3 5621   0.003   1.720   4.448  1.1897 -0.7337  0.1615
 1462SOL    MW4 5622   0.056   1.779   4.411 -0.0691 -0.3984  0.7237
 1463SOL     OW 5623   2.342   3.018   3.943 -0.1304  0.9836  0.4687
 1463SOL    HW2 5624   2.333   3.101   3.896  0.5254  0.8303  0.0552
 1463SOL    HW3 5625   2.262   2.970   3.922  0.4150  0.6693 -1.0256
 1463SOL    MW4 5626   2.330   3.023   3.934 -0.1063 -0.9092  0.1836
 1464SOL     OW 5627   2.627   1.936   5.442  0.6480 -0.2183 -0.3803
 1464SOL    HW2 5628   2.705   1.990   5.437  0.5357  0.0915  0.7729
 1464SOL    HW3 5629   2.649   1.868   5.506  0.7074 -1.4211 -1.6422
 1464SOL    MW4 5630   2.640   1.934   5.450  0.1178  0.2449  0.4862
 1465SOL     OW 5631   0.800   1.362   4.950  0.5457 -0.4558  0.5812
 1465SOL    HW2 5632   0.788   1.400   5.037 -0.3726 -0.1358  0.3220
 1465SOL    HW3 5633   0.711   1.351   4.916  0.6515 -3.7826  1.0270
 1465SOL    MW4 5634   0.787   1.366   4.957  0.0845 -0.0303 -0.4713
 1466SOL     OW 5635   0.716   0.466   2.968  0.6000  0.4647  0.1574
 1466SOL    HW2 5636   0.628   0.500   2.980  0.8479  1.8143 -1.5092
 1466SOL    HW3 5637   0.767   0.542   2.940  2.1093 -0.4705  0.2802
 1466SOL    MW4 5638   0.711   0.481   2.966  0.2223  0.5811  0.3542
 1467SOL     OW 5639   1.219   1.149   3.025 -0.1808 -0.2655  0.3540
 1467SOL    HW2 5640   1.133   1.186   3.009  0.0330  0.6891  1.3201
 1467SOL    HW3 5641   1.246   1.185   3.109  0.8898 -1.0633  0.3804
 1467SOL    MW4 5642   1.212   1.158   3.034  0.2393 -0.6011 -0.3764
 1468SOL     OW 5643   5.636   0.602   3.857  0.2841 -0.3496 -0.1184
 1468SOL    HW2 5644   5.559   0.585   3.802 -0.2462  0.0922  0.4738
 1468SOL    HW3 5645   5.709   0.568   3.806 -0.5767 -3.5038  0.5190
 1468SOL    MW4 5646   5.635   0.595   3.843 -0.1397 -0.0591  0.0093
 1469SOL     OW 5647   0.753   1.139   6.095  0.2207 -0.2635 -0.5313
 1469SOL    HW2 5648   0.695   1.160   6.022  0.1450  0.9070 -0.1501
 1469SOL    HW3 5649   0.839   1.170   6.067  0.0196  1.0636  0.2255
 1469SOL    MW4 5650   0.757   1.146   6.082  0.0916 -0.3887  0.1451
 1470SOL     OW 5651   5.170   0.630   5.702 -0.7046  0.3225 -0.1259
 1470SOL    HW2 5652   5.076   0.624   5.717 -0.4966  0.4769  1.4480
 1470SOL    HW3 5653   5.202   0.687   5.773  0.7239 -0.7101  0.1116
 1470SOL    MW4 5654   5.162   0.637   5.714 -0.4215  0.4099 -0.3028
 1471SOL     OW 5655   2.090   1.725   1.734  0.3529  0.0304 -0.0230
 1471SOL    HW2 5656   2.130   1.754   1.815 -0.5681  0.8606  0.1536
 1471SOL    HW3 5657   2.000   1.758   1.738 -0.1252 -1.1062 -0.7475
 1471SOL    MW4 5658   2.083   1.733   1.745  0.3596  0.1030 -0.1178
 1472SOL     OW 5659   1.414   5.514   1.072  0.6764 -0.6810  0.2474
 1472SOL    HW2 5660   1.378   5.550   0.991 -0.2134 -2.3076 -0.1197
 1472SOL    HW3 5661   1.478   5.450   1.043  0.4578 -1.1691  0.8298
 1472SOL    MW4 5662   1.417   5.511   1.058  0.2321  0.2155 -0.0396
 1473SOL     OW 5663   6.383   2.143   4.654 -0.0004 -0.5283 -0.4824
 1473SOL    HW2 5664   6.400   2.049   4.647  1.6282 -0.2430 -0.6553
 1473SOL    HW3 5665   6.389   2.162   4.748 -0.2534 -0.5722 -0.4554
 1473SOL    MW4 5666   6.386   2.133   4.665 -0.2556 -0.3239  0.9167
 1474SOL     OW 5667   1.590   1.423   5.574 -0.8214 -0.6442 -0.6824
 1474SOL    HW2 5668   1.578   1.506   5.527 -1.6150  0.4334  1.3132
 1474SOL    HW3 5669   1.527   1.363   5.534  0.9785 -0.9252 -3.3732
 1474SOL    MW4 5670   1.580   1.426   5.562 -0.0508  0.2204  0.4336
 1475SOL     OW 5671   3.149   3.418   1.570 -0.0171 -0.2769 -0.5174
 1475SOL    HW2 5672   3.108   3.377   1.494 -2.2115 -0.1177  0.4814
 1475SOL    HW3 5673   3.161   3.509   1.545  0.8706 -0.5779 -1.2420
 1475SOL    MW4 5674   3.145   3.424   1.557 -0.2227  0.5264 -0.3691
 1476SOL     OW 5675   2.231   3.103   1.510  0.0633  0.3355  0.7803
 1476SOL    HW2 5676   2.136   3.112   1.519  0.0235 -0.1623  0.8749
 1476SOL    HW3 5677   2.243   3.044   1.436  0.3270  1.4665 -0.1086
 1476SOL    MW4 5678   2.220   3.097   1.502  0.0083  0.9206 -0.1335
 1477SOL     OW 5679   2.135   3.619   2.174  0.0157 -0.5552  0.0354
 1477SOL    HW2 5680   2.211   3.594   2.122 -0.1330  1.1293 -1.0852
 1477SOL    HW3 5681   2.168   3.684   2.236 -0.9365  2.8628 -2.7093
 1477SOL    MW4 5682   2.149   3.624   2.175  0.2099  0.4835  0.6305
 1478SOL     OW 5683   6.304   3.294   4.025  0.4158 -0.0061  0.3022
 1478SOL    HW2 5684   6.355   3.301   3.944  0.7589  0.5069  0.5566
 1478SOL    HW3 5685   6.370   3.290   4.094  0.1171 -0.0282  0.5878
 1478SOL    MW4 5686   6.319   3.294   4.023 -0.0292 -0.3053 -0.0142
 1479SOL     OW 5687   0.094   0.924   1.692  0.1259  0.2740  0.0493
 1479SOL    HW2 5688   0.112   0.854   1.755  0.4036  0.2012 -0.1105
 1479SOL    HW3 5689   0.017   0.892   1.644 -1.5024  1.3198  1.8289
 1479SOL    MW4 5690   0.086   0.910   1.694 -0.1376 -0.1737  0.3439
 1480SOL     OW 5691   5.279   1.900   2.671  0.5967 -0.1026  0.4250
 1480SOL    HW2 5692   5.332   1.904   2.751  0.4152  0.7562  0.5108
 1480SOL    HW3 5693   5.344   1.903   2.600  1.0563 -4.3663  0.4394
 1480SOL    MW4 5694   5.295   1.901   2.672 -0.0644  0.1465  0.3344
 1481SOL     OW 5695   0.119   2.477   2.157  1.0291 -0.1150  0.4122
 1481SOL    HW2 5696   0.100   2.558   2.204  0.5560  0.1188 -0.1755
 1481SOL    HW3 5697   0.184   2.502   2.091 -0.2777  0.1336 -0.8100
 1481SOL    MW4 5698   0.125   2.491   2.155  0.0156 -0.2542 -0.0678
 1482SOL     OW 5699   4.309   1.074   1.290 -0.0082  0.3634 -1.0062
 1482SOL    HW2 5700   4.370   1.000   1.289 -0.0070  0.2669  1.3099
 1482SOL    HW3 5701   4.366   1.151   1.302 -0.2617  0.1316  3.0816
 1482SOL    MW4 5702   4.325   1.075   1.292 -0.3926 -0.5443 -0.0274
 1483SOL     OW 5703   2.268   4.236   1.780 -0.6606 -0.1354  0.3918
 1483SOL    HW2 5704   2.271   4.142   1.797 -1.3488 -0.1973  0.2086
 1483SOL    HW3 5705   2.265   4.276   1.867 -0.5987 -0.2892  0.4660
 1483SOL    MW4 5706   2.268   4.229   1.794  0.1180 -0.5032  0.4964
 1484SOL     OW 5707   5.137   4.463   3.555 -0.1099  1.1029 -0.4601
 1484SOL    HW2 5708   5.181   4.391   3.600 -1.1314 -0.5373 -1.9502
 1484SOL    HW3 5709   5.106   4.519   3.625 -1.4719 -1.2493  0.9618
 1484SOL    MW4 5710   5.139   4.460   3.570 -0.3837  0.0082 -0.0602
 1485SOL     OW 5711   0.779   3.798   2.748 -0.9764 -0.3417 -0.3420
 1485SOL    HW2 5712   0.829   3.809   2.667 -1.1073 -1.0173 -0.5159
 1485SOL    HW3 5713   0.688   3.794   2.720 -1.0588 -0.0977 -0.1145
 1485SOL    MW4 5714   0.774   3.799   2.734 -0.1090 -0.4326  0.0535
 1486SOL     OW 5715   4.012   5.365   5.338  0.0824 -0.3967 -0.1704
 1486SOL    HW2 5716   3.926   5.333   5.364  0.7649 -2.5248 -0.3733
 1486SOL    HW3 5717   4.049   5.404   5.417 -0.3932 -1.0049  0.3520
 1486SOL    MW4 5718   4.006   5.366   5.352 -0.0867  0.2211  0.1836
 1487SOL     OW 5719   0.482   0.544   1.160  0.3289  0.4703  0.2786
 1487SOL    HW2 5720   0.466   0.605   1.089  0.2749  0.4843  0.3030
 1487SOL    HW3 5721   0.575   0.521   1.152  0.1707 -0.0114 -0.1757
 1487SOL    MW4 5722   0.492   0.549   1.150  0.4131 -0.3188 -0.4843
 1488SOL     OW 5723   5.128   5.090   1.413  0.2755  0.5935 -0.4500
 1488SOL    HW2 5724   5.093   5.113   1.327 -0.1433 -1.8939 -1.0178
 1488SOL    HW3 5725   5.169   5.004   1.401 -1.4186 -0.7311  2.1975
 1488SOL    MW4 5726   5.129   5.081   1.400  1.0660 -0.1331 -0.1801
 1489SOL     OW 5727   4.659   4.327   6.057  0.0599 -0.3888  0.0265
 1489SOL    HW2 5728   4.606   4.356   5.984  2.2275  1.5602 -0.8902
 1489SOL    HW3 5729   4.747   4.317   6.021  1.4037  1.4716  2.4473
 1489SOL    MW4 5730   4.664   4.329   6.043 -0.1293  0.2440 -0.6180
 1490SOL     OW 5731   3.537   1.379   4.573  0.2893 -0.2023  0.0131
 1490SOL    HW2 5732   3.625   1.411   4.596  0.3762  0.5879 -1.3209
 1490SOL    HW3 5733   3.553   1.296   4.528  0.3693  0.0293 -0.3887
 1490SOL    MW4 5734   3.551   1.372   4.570 -0.2506  0.5258 -0.7033
 1491SOL     OW 5735   3.534   4.327   0.110  0.2743  0.2755 -0.1596
 1491SOL    HW2 5736   3.606   4.293   0.057  1.1340  0.3355  0.9599
 1491SOL    HW3 5737   3.571   4.401   0.158 -0.9971  1.4520 -0.8881
 1491SOL    MW4 5738   3.548   4.332   0.109 -0.0576 -0.0566  0.1634
 1492SOL     OW 5739   1.924   6.315   3.856  0.5224  0.0668 -0.3216
 1492SOL    HW2 5740   1.942   6.253   3.786  0.6266 -0.6935  0.3586
 1492SOL    HW3 5741   1.936   6.264   3.937  2.9503  1.5578  0.3444
 1492SOL    MW4 5742   1.928   6.300   3.858  0.1008  0.6479  0.1914
 1493SOL     OW 5743   2.569   0.101   6.118  0.7632 -0.3768 -0.1818
 1493SOL    HW2 5744   2.560   0.005   6.118 -0.7833 -0.2526  0.0086
 1493SOL    HW3 5745   2.602   0.122   6.030  1.3299 -1.0881 -0.1508
 1493SOL    MW4 5746   2.572   0.091   6.106 -0.1283  0.2916  0.0792
 1494SOL     OW 5747   3.940   3.653   5.403 -0.9394  0.0333  0.5800
 1494SOL    HW2 5748   3.932   3.595   5.327  0.0593 -0.2328  0.6648
 1494SOL    HW3 5749   3.944   3.593   5.478  0.8108  0.1598  0.6142
 1494SOL    MW4 5750   3.939   3.637   5.403 -0.5779 -0.2766 -0.1981
 1495SOL     OW 5751   3.302   5.805   1.999  0.2602 -0.0355 -0.0808
 1495SOL    HW2 5752   3.340   5.738   1.942  1.0912  0.3341  0.0272
 1495SOL    HW3 5753   3.365   5.813   2.071 -0.6581 -0.3233  0.7640
 1495SOL    MW4 5754   3.316   5.797   2.001  0.2632 -0.3823 -0.1963
 1496SOL     OW 5755   1.923   4.405   2.069 -0.2152  0.1686 -0.3772
 1496SOL    HW2 5756   1.900   4.398   2.162  1.6718 -1.3738  0.0461
 1496SOL    HW3 5757   2.012   4.370   2.064  0.2884  1.5661 -2.5704
 1496SOL    MW4 5758   1.932   4.399   2.081 -0.0064 -0.6309 -0.4136
 1497SOL     OW 5759   3.509   2.817   1.992 -0.1445  0.5727 -0.3890
 1497SOL    HW2 5760   3.482   2.883   1.928 -0.2034  0.4005 -0.5429
 1497SOL    HW3 5761   3.429   2.769   2.013  0.1961 -0.5754 -1.5795
 1497SOL    MW4 5762   3.495   2.819   1.987 -0.5093 -0.2764 -0.0210
 1498SOL     OW 5763   5.682   5.314   5.410  0.3033  0.0239 -0.0069
 1498SOL    HW2 5764   5.718   5.267   5.334  0.5548 -1.0597  0.7506
 1498SOL    HW3 5765   5.602   5.267   5.431  1.5673 -1.4237  1.9936
 1498SOL    MW4 5766   5.676   5.302   5.403  0.1231  0.5368  0.5020
 1499SOL     OW 5767   2.552   4.199   1.979 -0.5002  0.3312 -0.1615
 1499SOL    HW2 5768   2.590   4.111   1.980  0.0719  0.5660  0.5642
 1499SOL    HW3 5769   2.586   4.239   1.899 -0.4974 -0.0008 -0.3273
 1499SOL    MW4 5770   2.562   4.193   1.969  0.1292 -0.0293  0.2345
 1500SOL     OW 5771   3.176   4.371   4.436  0.3943  0.3399  0.2140
 1500SOL    HW2 5772   3.169   4.466   4.433 -0.7641  0.2515 -0.6069
 1500SOL    HW3 5773   3.124   4.345   4.512  0.9130  0.3732  0.5828
 1500SOL    MW4 5774   3.168   4.380   4.445  0.1845  0.8221  0.1846
 1501SOL     OW 5775   3.584   6.423   3.861 -0.4045 -0.4529 -0.0069
 1501SOL    HW2 5776   3.623   6.368   3.929 -0.6501  1.0049  1.3808
 1501SOL    HW3 5777   3.520   6.477   3.907  0.5843  1.7606 -1.0688
 1501SOL    MW4 5778   3.581   6.423   3.876  0.0908 -0.4428  0.1478
 1502SOL     OW 5779   5.742   1.004   2.903 -0.2913 -0.1656  0.4850
 1502SOL    HW2 5780   5.716   0.954   2.826  0.2733  0.5076 -0.1559
 1502SOL    HW3 5781   5.776   1.086   2.868 -2.1549  1.1379  1.5336
 1502SOL    MW4 5782   5.743   1.009   2.888  0.5509  0.2931 -0.2675
 1503SOL     OW 5783   0.038   5.053   1.871  0.3672  0.2268  0.2967
 1503SOL    HW2 5784   0.008   5.138   1.904  0.2308  0.1659  0.3291
 1503SOL    HW3 5785   0.047   5.067   1.776 -0.0504  0.1621  0.2438
 1503SOL    MW4 5786   0.035   5.066   1.863  0.2922 -0.0884 -0.2087
 1504SOL     OW 5787   3.200   5.102   1.043 -0.6316 -0.2841  1.0021
 1504SOL    HW2 5788   3.195   5.172   1.108 -1.4010 -1.6995  2.5495
 1504SOL    HW3 5789   3.280   5.120   0.994 -1.6032  2.5468  0.2473
 1504SOL    MW4 5790   3.210   5.114   1.045  0.7607 -0.1226 -0.1394
 1505SOL     OW 5791   1.640   2.939   4.091  0.1988  0.3861  0.0863
 1505SOL    HW2 5792   1.660   3.027   4.061  1.6128  0.5005  1.2457
 1505SOL    HW3 5793   1.675   2.882   4.023  0.5767  0.6884  0.0242
 1505SOL    MW4 5794   1.647   2.943   4.078  0.1768  0.3113  0.6204
 1506SOL     OW 5795   2.926   4.763   5.992  0.4167 -0.2768  0.2830
 1506SOL    HW2 5796   3.008   4.713   5.987  1.2828  1.0288  0.7080
 1506SOL    HW3 5797   2.877   4.720   6.062  1.1376 -0.5393  0.6461
 1506SOL    MW4 5798   2.930   4.750   6.001 -0.7947  1.5607 -0.4799
 1507SOL     OW 5799   1.277   5.779   2.482  0.2008  0.3583 -0.0695
 1507SOL    HW2 5800   1.210   5.796   2.549  0.0514  1.1788 -0.4063
 1507SOL    HW3 5801   1.268   5.853   2.422  1.3195  0.3945 -0.1968
 1507SOL    MW4 5802   1.267   5.791   2.483  0.3555 -0.5548 -0.2571
 1508SOL     OW 5803   3.813   3.341   2.623  0.2006 -0.3876 -0.2460
 1508SOL    HW2 5804   3.847   3.330   2.534 -0.7970 -0.3856 -0.6347
 1508SOL    HW3 5805   3.794   3.252   2.652  0.1038 -0.3530 -0.2043
 1508SOL    MW4 5806   3.815   3.328   2.615 -0.4583 -0.3939  0.2317
 1509SOL     OW 5807   1.888   5.133   0.817  0.1814 -0.1889 -0.0883
 1509SOL    HW2 5808   1.939   5.203   0.858  0.8980  0.6969 -2.3155
 1509SOL    HW3 5809   1.877   5.067   0.886 -0.5547  2.0832  2.1124
 1509SOL    MW4 5810   1.893   5.133   0.831 -0.5768  0.8124 -0.1759
 1510SOL     OW 5811   1.315   4.344   1.485  0.6535  0.0513  0.1989
 1510SOL    HW2 5812   1.305   4.285   1.560 -0.1110  1.0827  0.9515
 1510SOL    HW3 5813   1.373   4.413   1.516  3.2452 -1.2736 -1.3282
 1510SOL    MW4 5814   1.321   4.345   1.499 -0.4198 -0.1045  0.2557
 1511SOL     OW 5815   1.168   5.246   6.156  0.2703 -0.0279  0.3343
 1511SOL    HW2 5816   1.113   5.305   6.207  0.4873  0.5344 -0.0758
 1511SOL    HW3 5817   1.255   5.254   6.195  0.9827  2.1623 -1.5097
 1511SOL    MW4 5818   1.172   5.255   6.168 -0.3780 -0.0273 -0.0456
 1512SOL     OW 5819   4.945   3.201   2.518 -0.4824  0.5960 -0.7628
 1512SOL    HW2 5820   4.855   3.169   2.515 -0.3738  0.2234 -0.2146
 1512SOL    HW3 5821   4.945   3.279   2.462 -1.2440  0.8415 -0.4432
 1512SOL    MW4 5822   4.933   3.207   2.511  0.0983  0.5325 -0.0187
 1513SOL     OW 5823   3.459   3.807   4.993 -0.3673 -0.4733  0.3573
 1513SOL    HW2 5824   3.384   3.747   5.000  0.2982 -1.1778  1.9993
 1513SOL    HW3 5825   3.448   3.850   4.909 -2.4779 -0.7577  0.4457
 1513SOL    MW4 5826   3.448   3.805   4.983  0.0759  0.4616 -0.1257
 1514SOL     OW 5827   0.441   1.944   3.411  0.7675  0.0166  0.8804
 1514SOL    HW2 5828   0.413   1.968   3.322  2.4902 -2.5995 -0.5068
 1514SOL    HW3 5829   0.444   2.028   3.458 -1.5158  1.3505 -1.0682
 1514SOL    MW4 5830   0.438   1.959   3.405  0.4039  0.2115  0.1270
 1515SOL     OW 5831   5.156   1.323   3.013 -0.0910  0.6975 -0.1331
 1515SOL    HW2 5832   5.243   1.318   2.974  0.6101  2.6056  1.0465
 1515SOL    HW3 5833   5.164   1.275   3.095  0.0581  1.4463  0.2961
 1515SOL    MW4 5834   5.169   1.316   3.019 -0.5577 -0.4221  0.3858
 1516SOL     OW 5835   5.592   2.129   2.766 -0.6459 -0.2436 -0.3350
 1516SOL    HW2 5836   5.524   2.098   2.826 -0.7343 -0.5530 -0.5947
 1516SOL    HW3 5837   5.546   2.148   2.684 -0.5932  0.5590 -0.1960
 1516SOL    MW4 5838   5.577   2.128   2.763  0.2161 -0.3247  0.0228
 1517SOL     OW 5839   4.512   1.939   2.415 -0.2569 -0.4051  0.5919
 1517SOL    HW2 5840   4.568   1.904   2.484 -0.5673 -0.4688  0.8105
 1517SOL    HW3 5841   4.423   1.928   2.448 -0.3863 -0.0205  0.3742
 1517SOL    MW4 5842   4.507   1.933   2.428  0.1652 -0.2001  0.0673
 1518SOL     OW 5843   1.058   0.305   1.615 -0.7366  0.1412 -0.0602
 1518SOL    HW2 5844   0.972   0.264   1.624 -0.7858 -0.2405 -1.7762
 1518SOL    HW3 5845   1.082   0.332   1.703 -1.5918 -1.8149  0.8268
 1518SOL    MW4 5846   1.049   0.303   1.628 -0.2589  0.0756 -0.4932
 1519SOL     OW 5847   1.186   1.223   1.735  0.3604  0.2224  0.2601
 1519SOL    HW2 5848   1.137   1.303   1.756 -2.0489 -1.1956  0.3919
 1519SOL    HW3 5849   1.231   1.201   1.817 -2.6786 -0.9704  1.7745
 1519SOL    MW4 5850   1.186   1.231   1.749  0.4702  0.0262 -0.5195
 1520SOL     OW 5851   4.473   1.561   0.021 -0.1892 -0.7181 -0.1115
 1520SOL    HW2 5852   4.385   1.581  -0.013  0.0709 -0.7416 -0.8091
 1520SOL    HW3 5853   4.515   1.511  -0.048 -0.2569 -2.3487  0.9667
 1520SOL    MW4 5854   4.467   1.557   0.008  0.7423 -0.1315 -0.3613
 1521SOL     OW 5855   5.395   0.102   1.435 -0.1798  0.4070 -0.0562
 1521SOL    HW2 5856   5.380   0.172   1.371 -0.8838  1.0183  0.7509
 1521SOL    HW3 5857   5.457   0.043   1.392  0.4968  1.5652 -0.7286
 1521SOL    MW4 5858   5.401   0.104   1.420 -0.1571 -0.3062  0.8604
 1522SOL     OW 5859   1.703   0.560   6.364  0.0317  0.5748  1.0054
 1522SOL    HW2 5860   1.741   0.525   6.444 -1.6404  0.6088  1.8576
 1522SOL    HW3 5861   1.711   0.490   6.300 -0.4366 -0.2009  1.7870
 1522SOL    MW4 5862   1.709   0.546   6.366  0.1572 -0.5447  0.4471
 1523SOL     OW 5863   2.338   0.219   6.030  0.3613  0.0915 -0.2416
 1523SOL    HW2 5864   2.256   0.176   6.056 -1.3503  2.0289 -2.0978
 1523SOL    HW3 5865   2.406   0.156   6.054 -1.7533 -2.2601  0.0473
 1523SOL    MW4 5866   2.336   0.205   6.037  0.7066 -0.2830 -0.1517
 1524SOL     OW 5867   6.167   3.316   4.498 -0.0715  0.0859 -0.0624
 1524SOL    HW2 5868   6.179   3.408   4.474 -1.5139 -0.1840 -2.0686
 1524SOL    HW3 5869   6.255   3.279   4.494  0.6298  1.4810  1.4102
 1524SOL    MW4 5870   6.180   3.323   4.494 -0.7820  0.4235 -0.3686
 1525SOL     OW 5871   4.903   4.090   5.306 -0.1579  0.5329  0.2322
 1525SOL    HW2 5872   4.996   4.073   5.291 -0.1299  0.2398  0.7141
 1525SOL    HW3 5873   4.883   4.043   5.387 -1.1769 -1.0091 -0.8488
 1525SOL    MW4 5874   4.912   4.082   5.315 -0.6009  0.0578 -0.0423
 1526SOL     OW 5875   4.672   2.551   5.827  0.1539 -0.4482  0.0616
 1526SOL    HW2 5876   4.663   2.638   5.866  0.0849  0.0095 -0.9395
 1526SOL    HW3 5877   4.632   2.492   5.890  0.3110  0.2343  0.8149
 1526SOL    MW4 5878   4.666   2.555   5.840  0.1314 -0.1943 -0.3622
 1527SOL     OW 5879   1.236   5.392   5.946  0.1455 -0.0987 -0.0066
 1527SOL    HW2 5880   1.212   5.339   6.022  1.1724  0.3982  0.6863
 1527SOL    HW3 5881   1.182   5.357   5.875 -0.6930 -0.7051  0.8947
 1527SOL    MW4 5882   1.226   5.380   5.946  0.2884 -0.0209  0.0714
 1528SOL     OW 5883   2.401   3.148   1.251  0.5550  0.2593 -0.4092
 1528SOL    HW2 5884   2.375   3.059   1.272 -1.1316  0.6417 -0.7378
 1528SOL    HW3 5885   2.458   3.139   1.174  0.3455 -0.5309 -0.4815
 1528SOL    MW4 5886   2.405   3.135   1.243 -0.0352 -0.3734 -1.1335
 1529SOL     OW 5887   0.343   3.610   0.782 -0.2231 -0.0200  0.2840
 1529SOL    HW2 5888   0.430   3.571   0.780  0.5424  1.5326  0.9291
 1529SOL    HW3 5889   0.296   3.570   0.709  0.8203 -1.3560  0.3206
 1529SOL    MW4 5890   0.349   3.600   0.772  0.8535 -0.2477 -0.0198
 1530SOL     OW 5891   2.884   2.049   4.788  0.9992 -0.1957 -0.6911
 1530SOL    HW2 5892   2.893   2.121   4.850 -0.4875 -0.2951 -0.3207
 1530SOL    HW3 5893   2.911   1.971   4.838  0.5346 -0.1738 -0.3989
 1530SOL    MW4 5894   2.889   2.048   4.803 -0.2421 -0.0976 -0.2369
 1531SOL     OW 5895   4.350   3.573   3.333 -0.0582 -0.5466 -0.2142
 1531SOL    HW2 5896   4.255   3.574   3.320 -0.0051 -0.6985 -0.6108
 1531SOL    HW3 5897   4.380   3.494   3.287  0.4680  0.3812 -1.4984
 1531SOL    MW4 5898   4.341   3.562   3.325 -0.1983  0.5355 -0.0250
 1532SOL     OW 5899   3.992   2.266   3.393 -0.5213  0.0868  0.2594
 1532SOL    HW2 5900   4.008   2.177   3.362 -2.1500 -0.5066  1.0380
 1532SOL    HW3 5901   3.897   2.271   3.404 -0.3549  1.5646  1.3039
 1532SOL    MW4 5902   3.981   2.255   3.390 -0.1083 -0.5824 -0.9847
 1533SOL     OW 5903   4.160   0.372   5.758  0.3457  0.5353 -0.5643
 1533SOL    HW2 5904   4.105   0.393   5.682  1.2897  0.0679 -1.3867
 1533SOL    HW3 5905   4.105   0.314   5.812  0.2669 -0.5021 -1.7193
 1533SOL    MW4 5906   4.145   0.367   5.755 -0.0937  0.4505  0.3862
 1534SOL     OW 5907   5.167   5.545   5.145  0.3641  0.2033 -0.0776
 1534SOL    HW2 5908   5.161   5.610   5.076  2.5190  1.4812  0.8627
 1534SOL    HW3 5909   5.163   5.595   5.226 -3.1217 -1.3140  0.9209
 1534SOL    MW4 5910   5.166   5.560   5.147 -0.0409  0.3228 -1.0455
 1535SOL     OW 5911   0.918   5.717   5.136 -0.3879 -0.6321 -0.0482
 1535SOL    HW2 5912   0.876   5.802   5.148  2.4473  0.5128  3.7836
 1535SOL    HW3 5913   0.846   5.656   5.124 -2.6644  1.9506 -0.6115
 1535SOL    MW4 5914   0.903   5.720   5.136 -0.2052 -0.2712  0.2676
 1536SOL     OW 5915   2.668   6.419   4.884 -0.1383 -0.0630 -0.3884
 1536SOL    HW2 5916   2.732   6.399   4.953 -0.0354 -0.5654 -0.6215
 1536SOL    HW3 5917   2.650   6.334   4.844  0.4894  0.3461 -1.5747
 1536SOL    MW4 5918   2.674   6.405   4.888  0.0129  0.2313  0.2212
 1537SOL     OW 5919   4.284   2.686   1.133 -0.4040  0.2212 -0.2218
 1537SOL    HW2 5920   4.332   2.623   1.185 -1.5578 -0.0216  0.5801
 1537SOL    HW3 5921   4.192   2.664   1.146 -0.8345  1.8842 -0.1262
 1537SOL    MW4 5922   4.278   2.675   1.141 -0.3016 -0.2497  0.3892
 1538SOL     OW 5923   1.954   5.685   4.439  0.2254  0.5440  0.0385
 1538SOL    HW2 5924   2.023   5.641   4.487 -1.0964  0.4950  1.9932
 1538SOL    HW3 5925   1.951   5.773   4.476  0.7108  1.3016 -1.6093
 1538SOL    MW4 5926   1.962   5.691   4.450 -0.3191 -0.0657  0.3607
 1539SOL     OW 5927   3.461   6.316   2.217  0.3809 -0.8871  0.5815
 1539SOL    HW2 5928   3.427   6.246   2.274 -0.1645 -0.4555  0.7894
 1539SOL    HW3 5929   3.524   6.271   2.160 -0.9816 -1.8356 -0.2382
 1539SOL    MW4 5930   3.465   6.301   2.217  0.5936 -0.4722 -0.3431
 1540SOL     OW 5931   2.147   2.765   3.685  0.2330 -0.6552  0.0725
 1540SOL    HW2 5932   2.207   2.783   3.612 -0.5742 -1.0941 -0.7197
 1540SOL    HW3 5933   2.098   2.687   3.657 -0.9273 -0.1249  0.5690
 1540SOL    MW4 5934   2.148   2.757   3.672  0.2858  0.3842 -0.1473
 1541SOL     OW 5935   4.154   5.844   1.579 -0.1031 -0.0712  0.1248
 1541SOL    HW2 5936   4.086   5.869   1.516  1.4486 -0.5105 -1.8158
 1541SOL    HW3 5937   4.146   5.749   1.586 -0.1456 -0.0446  0.4548
 1541SOL    MW4 5938   4.144   5.835   1.572  0.1486 -0.3665  0.0232
 1542SOL     OW 5939   5.632   1.847   3.672 -0.4531  0.1789 -0.2692
 1542SOL    HW2 5940   5.546   1.817   3.701 -0.2207 -0.3803 -0.1420
 1542SOL    HW3 5941   5.617   1.880   3.583 -0.7289 -0.2723 -0.3942
 1542SOL    MW4 5942   5.619   1.847   3.664 -0.0161 -0.2095 -0.4537
 1543SOL     OW 5943   5.340   4.234   1.799 -0.0634 -0.6077 -0.0962
 1543SOL    HW2 5944   5.314   4.324   1.818  1.3960 -0.4750  1.4839
 1543SOL    HW3 5945   5.435   4.237   1.795 -0.0451 -1.8640 -1.3593
 1543SOL    MW4 5946   5.349   4.246   1.801 -1.6898  1.3025 -0.1721
 1544SOL     OW 5947   0.409   5.860   5.606  0.0487  0.5832  0.0770
 1544SOL    HW2 5948   0.333   5.900   5.563  1.4567  0.6561 -2.5840
 1544SOL    HW3 5949   0.440   5.926   5.668  0.0665  2.0772 -1.4617
 1544SOL    MW4 5950   0.403   5.874   5.608 -0.3614  0.1120  0.0423
 1545SOL     OW 5951   2.671   6.010   5.521 -0.0674  0.1776  0.1744
 1545SOL    HW2 5952   2.583   5.978   5.501  0.1200 -1.0603  1.1967
 1545SOL    HW3 5953   2.707   5.944   5.580  0.3980  2.2595  2.3667
 1545SOL    MW4 5954   2.664   5.997   5.526  0.3558 -0.2150  0.4933
 1546SOL     OW 5955   2.358   4.947   2.863  0.0212  0.0117  0.4447
 1546SOL    HW2 5956   2.267   4.932   2.840  0.0230 -0.1589  0.5483
 1546SOL    HW3 5957   2.406   4.879   2.815  0.0758 -0.0135  0.5349
 1546SOL    MW4 5958   2.353   4.936   2.854 -0.0016  0.4580 -0.3429
 1547SOL     OW 5959   4.640   0.304   5.771 -0.2408  0.1894 -0.5827
 1547SOL    HW2 5960   4.562   0.320   5.824 -0.1417 -0.2510 -0.2894
 1547SOL    HW3 5961   4.634   0.366   5.699 -1.3728 -0.5067 -1.1215
 1547SOL    MW4 5962   4.629   0.314   5.769 -0.6150  0.3511  0.1376
 1548SOL     OW 5963   2.726   5.744   5.637 -0.0348  0.5532  0.0452
 1548SOL    HW2 5964   2.749   5.654   5.660  1.8854  1.4482  1.9423
 1548SOL    HW3 5965   2.642   5.759   5.681 -0.8069 -0.5278 -0.9921
 1548SOL    MW4 5966   2.718   5.734   5.646 -0.5510  0.4140  0.0112
 1549SOL     OW 5967   5.960   3.816   3.553 -0.1512 -0.6512 -0.0988
 1549SOL    HW2 5968   5.897   3.887   3.561 -1.5266 -1.7787 -0.6168
 1549SOL    HW3 5969   6.003   3.813   3.639 -1.7719 -0.7449  0.7434
 1549SOL    MW4 5970   5.958   3.825   3.566 -0.0975  0.3105  0.4702
 1550SOL     OW 5971   5.224   1.984   3.115 -0.3216 -0.2026  0.0326
 1550SOL    HW2 5972   5.155   1.920   3.097  0.5548 -2.0057  2.6081
 1550SOL    HW3 5973   5.277   1.945   3.184  1.9236  2.1498 -0.1910
 1550SOL    MW4 5974   5.222   1.971   3.122 -0.1952  0.1469 -0.0642
 1551SOL     OW 5975   3.057   5.077   2.930 -0.4272 -0.1547 -0.2956
 1551SOL    HW2 5976   2.989   5.018   2.962 -1.1404 -0.7884 -2.7462
 1551SOL    HW3 5977   3.026   5.105   2.844  1.2617  1.5288 -0.4228
 1551SOL    MW4 5978   3.044   5.073   2.923  0.4282 -0.4167 -0.6947
 1552SOL     OW 5979   6.078   2.589   5.138  0.2038  0.8256 -1.1151
 1552SOL    HW2 5980   6.017   2.515   5.132  0.7756  0.2487 -0.1047
 1552SOL    HW3 5981   6.041   2.655   5.078 -0.7384  0.0334 -1.4490
 1552SOL    MW4 5982   6.065   2.588   5.129 -0.4835  0.4349  0.2612
 1553SOL     OW 5983   0.601   4.511   5.919  0.5219 -0.1680 -0.2569
 1553SOL    HW2 5984   0.537   4.502   5.848  0.7283  1.6325 -0.7253
 1553SOL    HW3 5985   0.686   4.494   5.877  0.6915  1.3655 -0.6100
 1553SOL    MW4 5986   0.604   4.508   5.904  0.8999 -0.3417  0.4503
 1554SOL     OW 5987   0.510   3.330   4.258 -0.4921 -0.2069 -0.1397
 1554SOL    HW2 5988   0.468   3.272   4.321 -1.6641  2.0226  1.2523
 1554SOL    HW3 5989   0.439   3.356   4.198 -0.2770  0.6562 -0.0401
 1554SOL    MW4 5990   0.495   3.326   4.258 -0.1906 -0.0285  0.2618
 1555SOL     OW 5991   5.138   1.740   2.002  0.4680 -0.8294  0.0050
 1555SOL    HW2 5992   5.195   1.790   1.943 -1.0264  1.3446  0.2845
 1555SOL    HW3 5993   5.163   1.769   2.090 -0.7369 -0.1880  0.1519
 1555SOL    MW4 5994   5.149   1.750   2.006  0.1227 -0.1720  0.0026
 1556SOL     OW 5995   4.958   5.381   4.513 -0.2578  0.1632 -0.2813
 1556SOL    HW2 5996   4.905   5.443   4.463 -0.7532  0.9541  1.1574
 1556SOL    HW3 5997   5.043   5.424   4.521  0.2466 -0.5578 -1.5412
 1556SOL    MW4 5998   4.962   5.395   4.507  0.0616  0.5008  0.7663
 1557SOL     OW 5999   5.380   1.740   3.772  0.0408 -0.1570  0.1032
 1557SOL    HW2 6000   5.315   1.804   3.744 -0.1227 -1.3014 -2.3436
 1557SOL    HW3 6001   5.403   1.767   3.861 -0.8276  2.6053 -0.4194
 1557SOL    MW4 6002   5.374   1.752   3.780 -0.0841 -0.0180 -0.3522
 1558SOL     OW 6003   0.800   5.669   0.697 -0.0167 -0.0460 -0.1165
 1558SOL    HW2 6004   0.718   5.711   0.671  0.8713  1.1948 -1.0070
 1558SOL    HW3 6005   0.773   5.587   0.737 -1.6499 -0.1949 -1.4212
 1558SOL    MW4 6006   0.786   5.664   0.699  0.2009  0.3164 -0.1173
 1559SOL     OW 6007   1.727   2.704   5.962 -0.3013  0.3565 -0.1505
 1559SOL    HW2 6008   1.723   2.610   5.944 -0.2796 -0.0118  1.6302
 1559SOL    HW3 6009   1.820   2.725   5.957  0.0120 -0.3081  2.0926
 1559SOL    MW4 6010   1.739   2.694   5.959 -0.3550  0.5320 -0.2081
 1560SOL     OW 6011   5.420   0.520   5.088  0.6405  0.4266  0.4172
 1560SOL    HW2 6012   5.395   0.508   5.180 -0.4441  0.1844  0.1043
 1560SOL    HW3 6013   5.457   0.435   5.063 -0.7022 -0.1021  0.1458
 1560SOL    MW4 6014   5.422   0.507   5.097  0.4711 -0.1084  0.4328
 1561SOL     OW 6015   5.308   2.892   5.173 -0.8028  0.3116  0.3330
 1561SOL    HW2 6016   5.253   2.875   5.097  2.0618 -0.3337 -1.7771
 1561SOL    HW3 6017   5.283   2.979   5.203 -1.2045  1.1047 -2.1643
 1561SOL    MW4 6018   5.298   2.901   5.167 -0.4217 -0.6202 -0.4670
 1562SOL     OW 6019   0.371   0.519   1.761 -0.5314  0.4981  0.3092
 1562SOL    HW2 6020   0.299   0.581   1.757 -0.1856  0.9315  0.6999
 1562SOL    HW3 6021   0.329   0.434   1.777 -0.9147  0.8480  1.2506
 1562SOL    MW4 6022   0.356   0.516   1.763  0.4079 -0.7052 -0.3985
 1563SOL     OW 6023   1.861   3.507   3.568  0.2229 -0.2566  0.1344
 1563SOL    HW2 6024   1.891   3.463   3.648 -0.7745  0.2198  0.7919
 1563SOL    HW3 6025   1.783   3.459   3.541  0.7937 -0.6800 -0.8179
 1563SOL    MW4 6026   1.855   3.495   3.575  0.0987  0.0600  0.1432
 1564SOL     OW 6027   5.781   1.329   3.662  0.3435 -0.4126 -0.1726
 1564SOL    HW2 6028   5.726   1.256   3.692 -0.4404  0.1516 -0.1926
 1564SOL    HW3 6029   5.817   1.367   3.742  0.3331 -0.4970 -0.1274
 1564SOL    MW4 6030   5.778   1.325   3.676 -0.2491  0.2393 -0.2936
 1565SOL     OW 6031   5.852   2.787   4.171 -0.0351  0.4562 -0.0868
 1565SOL    HW2 6032   5.852   2.758   4.080  0.0997 -2.8632  0.8373
 1565SOL    HW3 6033   5.793   2.726   4.215  1.3854  0.7518  2.3933
 1565SOL    MW4 6034   5.844   2.775   4.165 -0.2002 -0.2378  0.2574
 1566SOL     OW 6035   0.638   6.239   2.190 -0.2788  0.0276  0.8610
 1566SOL    HW2 6036   0.643   6.157   2.141  0.8248  1.1364 -0.9873
 1566SOL    HW3 6037   0.727   6.275   2.184 -0.7350  1.3376  1.7053
 1566SOL    MW4 6038   0.651   6.233   2.183  0.3769  0.8634  0.0532
 1567SOL     OW 6039   0.740   0.793   3.964  0.2054 -0.3387 -0.5102
 1567SOL    HW2 6040   0.690   0.839   3.896 -0.6201  0.3152  0.5091
 1567SOL    HW3 6041   0.712   0.702   3.956 -0.5582 -0.1121 -0.4752
 1567SOL    MW4 6042   0.730   0.787   3.954 -0.0333  0.1913  0.7899
 1568SOL     OW 6043   5.470   5.500   1.353 -0.0894  0.4434  0.3597
 1568SOL    HW2 6044   5.423   5.417   1.357 -2.1196  1.4104 -1.2343
 1568SOL    HW3 6045   5.505   5.503   1.264 -0.0611  1.3118  0.3951
 1568SOL    MW4 6046   5.469   5.490   1.342 -0.4081 -0.1713 -0.5818
 1569SOL     OW 6047   6.359   0.216   2.300 -0.0240  0.4407 -0.0254
 1569SOL    HW2 6048   6.339   0.123   2.289  1.7931  0.2197 -1.9665
 1569SOL    HW3 6049   6.454   0.219   2.313 -0.3377  1.8810  2.8637
 1569SOL    MW4 6050   6.369   0.204   2.300  0.4547 -0.7521  0.8671
 1570SOL     OW 6051   1.173   1.448   3.036  0.2129  0.4903 -0.1643
 1570SOL    HW2 6052   1.200   1.479   2.949  0.4573  1.4666  0.2427
 1570SOL    HW3 6053   1.252   1.410   3.074  0.2694  0.6568 -0.1158
 1570SOL    MW4 6054   1.187   1.447   3.029 -0.2102 -0.2700  0.4882
 1571SOL     OW 6055   2.889   0.167   1.604 -0.2218  0.5576  0.1414
 1571SOL    HW2 6056   2.967   0.219   1.583  1.9848 -3.1600 -1.9704
 1571SOL    HW3 6057   2.901   0.141   1.695 -0.2465  1.8795  0.5395
 1571SOL    MW4 6058   2.901   0.170   1.613  0.3268  0.2531  0.2074
 1572SOL     OW 6059   3.190   0.138   0.853 -0.0814  0.7555  0.4600
 1572SOL    HW2 6060   3.225   0.224   0.877 -0.7383  1.6960 -1.6796
 1572SOL    HW3 6061   3.100   0.155   0.826 -0.2215 -0.6149 -0.0247
 1572SOL    MW4 6062   3.183   0.151   0.853  0.4953  0.0326  0.2013
 1573SOL     OW 6063   5.114   2.320   2.428 -0.2977  0.0211  0.2741
 1573SOL    HW2 6064   5.154   2.318   2.341  1.9383 -0.9972  1.2392
 1573SOL    HW3 6065   5.058   2.242   2.432  1.7047 -1.4723  0.6080
 1573SOL    MW4 6066   5.112   2.310   2.417 -0.0815  0.2108  0.5148
 1574SOL     OW 6067   2.561   5.791   1.521  0.2792 -0.8772  0.3227
 1574SOL    HW2 6068   2.497   5.824   1.584  0.8806  1.8491 -0.3487
 1574SOL    HW3 6069   2.515   5.722   1.474 -1.6967  0.0032  0.8365
 1574SOL    MW4 6070   2.547   5.786   1.523  0.5460  0.1909  0.1216
 1575SOL     OW 6071   1.305   5.951   0.447 -0.1733  0.1975 -0.4444
 1575SOL    HW2 6072   1.346   5.870   0.418 -0.0438  0.6016 -1.4425
 1575SOL    HW3 6073   1.214   5.927   0.466  0.3868 -0.6243  1.4203
 1575SOL    MW4 6074   1.299   5.937   0.445 -0.6576 -0.1994  0.1612
 1576SOL     OW 6075   2.312   5.611   0.244  0.7400 -0.1376  0.3868
 1576SOL    HW2 6076   2.282   5.641   0.158 -1.5124  0.5250  1.3352
 1576SOL    HW3 6077   2.407   5.625   0.243  0.6014  0.9384 -1.5634
 1576SOL    MW4 6078   2.321   5.616   0.233  0.1654  0.2205 -0.5946
 1577SOL     OW 6079   2.840   3.765   2.335  0.1481 -0.2216  0.3180
 1577SOL    HW2 6080   2.879   3.845   2.301  0.5651 -0.6541 -0.2234
 1577SOL    HW3 6081   2.913   3.704   2.343 -0.2341 -0.6772  0.3574
 1577SOL    MW4 6082   2.854   3.768   2.332  0.0186  0.0086 -0.1563
 1578SOL     OW 6083   1.680   3.115   4.753 -0.6484  0.4683  0.0408
 1578SOL    HW2 6084   1.759   3.069   4.782 -0.8136 -0.7419 -1.3503
 1578SOL    HW3 6085   1.698   3.138   4.662 -1.1106  2.0232  0.3102
 1578SOL    MW4 6086   1.693   3.112   4.745 -0.5717 -0.6621  0.4022
 1579SOL     OW 6087   5.830   4.533   6.327 -0.5860  0.2625  0.0026
 1579SOL    HW2 6088   5.759   4.579   6.284  0.8422  0.5765 -2.1953
 1579SOL    HW3 6089   5.901   4.597   6.332  0.4914 -0.8383 -0.5163
 1579SOL    MW4 6090   5.830   4.547   6.322  0.0490 -0.1507 -0.0244
 1580SOL     OW 6091   0.471   2.868   3.377 -0.1500 -0.3298 -0.7975
 1580SOL    HW2 6092   0.452   2.879   3.470  2.2035  0.2013 -0.2964
 1580SOL    HW3 6093   0.558   2.827   3.376  0.9905  1.9233 -2.7427
 1580SOL    MW4 6094   0.480   2.864   3.389 -0.4956  0.0770  0.8762
 1581SOL     OW 6095   0.431   3.918   5.013  0.1803 -0.0025  0.0619
 1581SOL    HW2 6096   0.397   3.890   5.097 -1.4119 -0.7643 -0.8067
 1581SOL    HW3 6097   0.396   4.006   5.001 -0.0788 -0.1260 -0.0784
 1581SOL    MW4 6098   0.422   3.926   5.023  0.7081 -0.2877  0.0179
 1582SOL     OW 6099   0.216   4.884   4.774 -0.3097  0.0215 -0.2625
 1582SOL    HW2 6100   0.259   4.840   4.700 -0.7808 -1.9048  0.5541
 1582SOL    HW3 6101   0.274   4.870   4.848  0.2581  2.1165 -0.2364
 1582SOL    MW4 6102   0.229   4.876   4.774 -0.6134  0.1920 -1.0879
 1583SOL     OW 6103   6.285   6.365   2.253 -0.2035  0.1790 -0.2943
 1583SOL    HW2 6104   6.211   6.309   2.276  0.5454 -0.5855  0.3431
 1583SOL    HW3 6105   6.361   6.306   2.253  0.9195  1.4438  2.1541
 1583SOL    MW4 6106   6.285   6.350   2.256 -0.1780  0.3008 -0.3745
 1584SOL     OW 6107   2.809   2.793   0.740  0.5542  0.1504  0.0187
 1584SOL    HW2 6108   2.784   2.848   0.666 -0.2117 -2.5793 -1.8815
 1584SOL    HW3 6109   2.905   2.788   0.736  0.4788 -0.6288 -1.3524
 1584SOL    MW4 6110   2.819   2.800   0.730 -0.1576 -0.5014  0.0461
 1585SOL     OW 6111   0.184   4.071   3.745  0.5109 -0.3573 -0.3303
 1585SOL    HW2 6112   0.207   4.094   3.835 -0.0067 -0.9382 -0.0442
 1585SOL    HW3 6113   0.091   4.092   3.738  0.7963  0.8061 -1.1017
 1585SOL    MW4 6114   0.175   4.077   3.756  0.0187  0.2074  0.0796
 1586SOL     OW 6115   2.191   6.381   1.776 -0.4593 -0.0311 -0.4060
 1586SOL    HW2 6116   2.216   6.330   1.853  2.1503 -0.5648 -1.5051
 1586SOL    HW3 6117   2.192   6.472   1.806  2.1970 -0.0888 -0.1100
 1586SOL    MW4 6118   2.195   6.386   1.790 -0.1109 -0.1940 -0.1920
 1587SOL     OW 6119   3.535   0.603   1.390  0.0993 -0.5502 -0.2020
 1587SOL    HW2 6120   3.476   0.676   1.373 -0.5305 -0.8153  0.7502
 1587SOL    HW3 6121   3.620   0.632   1.355 -0.3643  0.2381 -0.6975
 1587SOL    MW4 6122   3.539   0.617   1.383 -0.1210 -0.2371 -0.5711
 1588SOL     OW 6123   2.819   5.043   2.545 -0.0616 -0.7822 -0.2340
 1588SOL    HW2 6124   2.787   5.058   2.456 -0.4298 -2.1003 -0.3450
 1588SOL    HW3 6125   2.888   4.978   2.535  1.3909  0.6103  0.2303
 1588SOL    MW4 6126   2.824   5.036   2.532 -0.5397 -0.3872  0.4731
 1589SOL     OW 6127   1.888   0.130   4.025  0.0674 -0.5711  0.3009
 1589SOL    HW2 6128   1.861   0.062   3.963  1.8886 -1.7068  0.6957
 1589SOL    HW3 6129   1.827   0.202   4.009  0.1147 -1.0375 -2.4372
 1589SOL    MW4 6130   1.877   0.131   4.014 -0.3478  0.3106  0.3651
 1590SOL     OW 6131   5.676   5.300   5.755 -0.5615 -0.1243 -1.3570
 1590SOL    HW2 6132   5.738   5.253   5.700  0.8657 -1.4975  1.2605
 1590SOL    HW3 6133   5.722   5.380   5.781  0.4739 -1.3940  1.0202
 1590SOL    MW4 6134   5.690   5.304   5.751  0.1619  0.8910 -0.2288
 1591SOL     OW 6135   6.378   4.870   0.805 -0.1338 -0.7241  0.7471
 1591SOL    HW2 6136   6.317   4.859   0.732 -0.3201  1.3201  0.5544
 1591SOL    HW3 6137   6.326   4.910   0.874  0.9277  0.9599  0.6197
 1591SOL    MW4 6138   6.363   4.874   0.804 -0.4714  0.2408  0.1472
 1592SOL     OW 6139   0.458   3.846   0.015  0.2417  0.8431  0.7030
 1592SOL    HW2 6140   0.449   3.880   0.104  0.5039 -0.6294  1.3204
 1592SOL    HW3 6141   0.551   3.853  -0.005 -0.0872  3.1078 -0.2974
 1592SOL    MW4 6142   0.469   3.851   0.024  0.1340 -0.2802  0.1815
 1593SOL     OW 6143   5.708   5.244   4.828 -0.5118 -0.2819 -0.3203
 1593SOL    HW2 6144   5.724   5.150   4.838 -0.4386 -0.3962 -1.3690
 1593SOL    HW3 6145   5.754   5.267   4.746  1.5092  1.1533  1.1127
 1593SOL    MW4 6146   5.716   5.235   4.818  0.1419  0.1536  0.7181
 1594SOL     OW 6147   1.732   0.176   6.016  0.2313  0.2449 -0.2075
 1594SOL    HW2 6148   1.705   0.224   5.937 -0.7604 -0.7511 -0.4910
 1594SOL    HW3 6149   1.654   0.127   6.042  0.7773 -0.0255  0.9691
 1594SOL    MW4 6150   1.718   0.176   6.009  0.5332 -0.6902 -0.2495
 1595SOL     OW 6151   2.147   1.400   3.144  0.1538 -0.4091  0.6686
 1595SOL    HW2 6152   2.152   1.467   3.212 -1.2945 -1.3435  1.7532
 1595SOL    HW3 6153   2.136   1.449   3.063 -0.3853  0.6941  1.3806
 1595SOL    MW4 6154   2.146   1.415   3.142  0.5392  0.4727  0.3935
 1596SOL     OW 6155   0.767   3.017   2.633  0.0409 -0.6542  0.2566
 1596SOL    HW2 6156   0.812   3.091   2.674  0.9205 -0.7097 -0.5811
 1596SOL    HW3 6157   0.714   3.056   2.564 -0.3363 -0.7097  0.5087
 1596SOL    MW4 6158   0.766   3.032   2.629  0.3122 -0.4593 -0.0744
 1597SOL     OW 6159   6.424   2.032   5.622  0.4098  0.0161  0.2836
 1597SOL    HW2 6160   6.490   2.044   5.555  0.5099 -1.8113  0.0005
 1597SOL    HW3 6161   6.453   1.955   5.671 -0.9487 -0.1739  0.8373
 1597SOL    MW4 6162   6.436   2.023   5.620  0.3525  0.2338  0.8661
 1598SOL     OW 6163   3.906   2.067   5.722  0.4938 -0.4608 -0.0043
 1598SOL    HW2 6164   3.854   1.998   5.763 -1.6693  0.5218 -0.9266
 1598SOL    HW3 6165   3.853   2.097   5.648  2.7526  0.1322 -1.4792
 1598SOL    MW4 6166   3.892   2.062   5.718 -0.4952  0.0240  0.3751
 1599SOL     OW 6167   1.542   2.844   2.306  0.5563 -0.5619  0.6494
 1599SOL    HW2 6168   1.519   2.936   2.322  2.1805 -0.1246  0.6804
 1599SOL    HW3 6169   1.598   2.821   2.380  1.0706 -1.2200  0.0629
 1599SOL    MW4 6170   1.547   2.853   2.317 -0.3181  0.3349 -0.1530
 1600SOL     OW 6171   5.845   2.240   6.336  0.0563 -0.3087  0.4324
 1600SOL    HW2 6172   5.765   2.234   6.284  0.0775  1.2960  0.1672
 1600SOL    HW3 6173   5.903   2.175   6.297  0.7260  1.9532 -2.8050
 1600SOL    MW4 6174   5.842   2.230   6.324  0.0480 -0.2064 -0.3723
 1601SOL     OW 6175   0.016   0.218   4.229  0.0156  0.1653 -0.0618
 1601SOL    HW2 6176   0.078   0.254   4.292  0.2860 -0.0491 -0.2030
 1601SOL    HW3 6177  -0.010   0.293   4.176  1.1546  0.0307 -0.8421
 1601SOL    MW4 6178   0.020   0.232   4.230 -0.4457  0.3550 -0.4263
 1602SOL     OW 6179   0.246   5.921   0.953  0.1166 -0.4027 -0.1245
 1602SOL    HW2 6180   0.226   5.887   1.041  0.3486  1.6194  0.7569
 1602SOL    HW3 6181   0.332   5.885   0.933 -0.1619 -1.3062  0.2315
 1602SOL    MW4 6182   0.254   5.911   0.962  0.0538  0.3138  0.1677
 1603SOL     OW 6183   5.204   4.906   1.041 -0.3660  0.2865 -0.4903
 1603SOL    HW2 6184   5.213   4.842   0.970  3.4065 -0.6710  0.5774
 1603SOL    HW3 6185   5.270   4.972   1.022 -0.9717  1.3301  0.8716
 1603SOL    MW4 6186   5.214   4.906   1.029  0.4130  0.3604  0.0398
 1604SOL     OW 6187   1.478   2.886   1.788  0.2676 -0.6303  0.2669
 1604SOL    HW2 6188   1.491   2.867   1.881 -1.9663  1.8602  1.2094
 1604SOL    HW3 6189   1.404   2.830   1.763 -1.0923  0.8348  0.8678
 1604SOL    MW4 6190   1.470   2.876   1.797  0.5215  0.2416 -0.1117
 1605SOL     OW 6191   4.225   1.588   0.630 -0.5817  0.0214 -0.4111
 1605SOL    HW2 6192   4.285   1.557   0.698 -1.0557  0.3322  0.1586
 1605SOL    HW3 6193   4.186   1.668   0.667  0.4433  1.2038 -1.7376
 1605SOL    MW4 6194   4.228   1.595   0.643  0.4076  0.0180  0.2311
 1606SOL     OW 6195   0.578   1.107   1.264  0.3732 -0.0350 -0.7111
 1606SOL    HW2 6196   0.523   1.167   1.314  0.5550  0.3065 -0.9201
 1606SOL    HW3 6197   0.559   1.021   1.302  0.0812  0.1447 -0.4388
 1606SOL    MW4 6198   0.568   1.103   1.276 -0.0738 -0.4319 -0.5095
 1607SOL     OW 6199   3.315   3.407   5.290 -0.4490 -0.0750 -0.5596
 1607SOL    HW2 6200   3.322   3.318   5.327  0.8188  0.6053  0.9776
 1607SOL    HW3 6201   3.231   3.408   5.246 -1.1508 -1.6106  0.6304
 1607SOL    MW4 6202   3.305   3.395   5.289 -0.0448 -0.1046 -0.0346
 1608SOL     OW 6203   0.947   1.993   1.112  0.2816  0.3911 -0.5004
 1608SOL    HW2 6204   0.991   1.915   1.077 -0.8253 -0.9225  0.8895
 1608SOL    HW3 6205   0.895   2.025   1.039  1.2388  0.2093 -1.2840
 1608SOL    MW4 6206   0.946   1.987   1.098  0.5017  0.4076 -1.1582
 1609SOL     OW 6207   1.475   0.198   2.497 -0.2734 -0.4706  0.2311
 1609SOL    HW2 6208   1.463   0.103   2.489  1.5266 -0.7261  0.0855
 1609SOL    HW3 6209   1.435   0.219   2.582 -0.0904 -1.4950  0.5977
 1609SOL    MW4 6210   1.468   0.188   2.507 -0.4093 -0.3962 -0.4667
 1610SOL     OW 6211   4.755   4.429   1.013  0.3421  1.0580 -0.3065
 1610SOL    HW2 6212   4.759   4.510   1.063 -0.2325  0.8806  0.0266
 1610SOL    HW3 6213   4.793   4.363   1.072  2.3085  1.3479 -1.1534
 1610SOL    MW4 6214   4.761   4.431   1.028  0.1740  0.1623 -0.1862
 1611SOL     OW 6215   1.853   5.528   4.235 -0.2203  0.2824 -0.2280
 1611SOL    HW2 6216   1.790   5.482   4.292  1.1425 -1.0062  0.3182
 1611SOL    HW3 6217   1.913   5.571   4.296  1.4123 -1.3195 -0.5947
 1611SOL    MW4 6218   1.853   5.527   4.251 -0.7141  0.2647 -0.2624
 1612SOL     OW 6219   5.190   4.694   4.021  0.4174 -0.1022  0.1601
 1612SOL    HW2 6220   5.153   4.624   3.968 -0.5348  0.6608 -0.2134
 1612SOL    HW3 6221   5.115   4.732   4.067  0.9756  0.4180  0.6677
 1612SOL    MW4 6222   5.176   4.690   4.020 -0.2345  0.0263 -0.1739
 1613SOL     OW 6223   2.384   5.262   6.384  0.0104  0.6298  0.3347
 1613SOL    HW2 6224   2.302   5.308   6.368 -0.5700 -0.4282  0.1902
 1613SOL    HW3 6225   2.361   5.170   6.380  1.5107  0.2745 -1.3857
 1613SOL    MW4 6226   2.370   5.256   6.382  0.4990 -0.6820 -0.6433
 1614SOL     OW 6227   5.876   1.271   5.169 -0.0594 -0.7265  0.1450
 1614SOL    HW2 6228   5.790   1.239   5.140  0.7583 -2.2489 -0.7677
 1614SOL    HW3 6229   5.863   1.294   5.261 -1.4431 -0.9244  0.0297
 1614SOL    MW4 6230   5.863   1.270   5.177 -0.6387 -0.1539 -0.1546
 1615SOL     OW 6231   0.019   2.786   3.555 -0.1107  0.3614  0.0963
 1615SOL    HW2 6232  -0.061   2.768   3.605  0.3226 -2.6997 -0.1228
 1615SOL    HW3 6233  -0.013   2.814   3.469 -1.0395 -1.7926 -0.3187
 1615SOL    MW4 6234   0.004   2.787   3.551 -0.0811  0.2140 -0.6004
 1616SOL     OW 6235   2.988   4.976   5.325  0.3531 -0.3726 -0.3442
 1616SOL    HW2 6236   2.934   5.042   5.283 -0.9768 -1.6933 -0.7897
 1616SOL    HW3 6237   2.945   4.960   5.409  0.7667 -0.5601 -0.1646
 1616SOL    MW4 6238   2.975   4.983   5.331 -0.4124 -0.0344 -0.0609
 1617SOL     OW 6239   2.999   4.482   3.415 -0.7624  0.1195 -0.1874
 1617SOL    HW2 6240   2.946   4.476   3.494 -1.4680  0.1815 -0.6512
 1617SOL    HW3 6241   2.938   4.508   3.347 -0.1149  0.2952 -0.7109
 1617SOL    MW4 6242   2.984   4.485   3.417 -0.0082 -0.1086  0.4782
 1618SOL     OW 6243   3.337   6.102   0.657 -0.3073  0.0084  0.1449
 1618SOL    HW2 6244   3.407   6.093   0.720 -0.4342 -0.0206  0.2816
 1618SOL    HW3 6245   3.287   6.178   0.686 -0.0457  0.3273 -0.2294
 1618SOL    MW4 6246   3.339   6.111   0.669  0.1068 -0.5484  0.0970
 1619SOL     OW 6247   2.371   3.452   5.134 -0.5098 -0.3075 -0.1611
 1619SOL    HW2 6248   2.366   3.362   5.103 -0.3514 -0.7180  0.9494
 1619SOL    HW3 6249   2.295   3.496   5.096  0.8681 -0.1654 -2.9383
 1619SOL    MW4 6250   2.360   3.446   5.125  0.1031  0.2917 -0.1859
 1620SOL     OW 6251   5.375   4.756   5.806 -0.7942 -0.0927  0.3265
 1620SOL    HW2 6252   5.295   4.754   5.858 -0.0139  3.0600  1.8979
 1620SOL    HW3 6253   5.357   4.817   5.735 -0.3526 -0.7961 -0.4065
 1620SOL    MW4 6254   5.362   4.764   5.803  0.6397  0.5660  0.3567
 1621SOL     OW 6255   3.619   0.625   4.843  0.2546  0.4209  0.1098
 1621SOL    HW2 6256   3.676   0.617   4.919  1.1308  0.6191 -0.5059
 1621SOL    HW3 6257   3.675   0.661   4.774 -0.6757  0.8641 -0.4519
 1621SOL    MW4 6258   3.634   0.629   4.844 -0.4977  0.4968  0.0574
 1622SOL     OW 6259   1.783   1.218   4.838 -0.2507 -0.3088  0.0100
 1622SOL    HW2 6260   1.730   1.284   4.882  1.0880  1.0416 -0.3419
 1622SOL    HW3 6261   1.755   1.135   4.878 -1.8147  0.4561  0.6070
 1622SOL    MW4 6262   1.772   1.216   4.849 -0.4780  0.4030 -0.1960
 1623SOL     OW 6263   3.931   6.126   0.219 -0.5061 -0.3082  0.3345
 1623SOL    HW2 6264   3.930   6.220   0.235 -0.8962  0.0798 -1.7103
 1623SOL    HW3 6265   3.861   6.112   0.155  1.2297 -1.5543 -1.4303
 1623SOL    MW4 6266   3.922   6.137   0.212  0.5458 -0.7204 -0.4397
 1624SOL     OW 6267   3.569   1.052   0.053  0.3564 -0.2364 -0.4766
 1624SOL    HW2 6268   3.529   1.017   0.132 -0.2239 -0.4688 -0.8673
 1624SOL    HW3 6269   3.511   1.024  -0.018 -0.2535  1.6687 -0.7857
 1624SOL    MW4 6270   3.556   1.044   0.054  0.2389 -0.4603  0.1682
 1625SOL     OW 6271   4.433   1.485   1.804  0.1042 -0.3776 -0.1210
 1625SOL    HW2 6272   4.455   1.424   1.874  1.2447 -0.1741 -0.2840
 1625SOL    HW3 6273   4.504   1.549   1.804 -0.1800 -0.0354 -1.0792
 1625SOL    MW4 6274   4.445   1.485   1.813 -0.0148 -0.1378  0.8154
 1626SOL     OW 6275   6.118   6.411   2.719  0.1788  0.0047 -0.0339
 1626SOL    HW2 6276   6.112   6.506   2.723 -2.0254 -0.0569 -0.1668
 1626SOL    HW3 6277   6.189   6.393   2.657 -0.3247  1.5923 -1.1376
 1626SOL    MW4 6278   6.126   6.421   2.711  0.4287  0.4168  0.6165
 1627SOL     OW 6279   5.583   4.985   5.521  0.8428  0.3894 -0.3502
 1627SOL    HW2 6280   5.524   4.910   5.517  0.4407  0.7393 -1.2866
 1627SOL    HW3 6281   5.671   4.946   5.514  0.8066 -0.2053  1.9013
 1627SOL    MW4 6282   5.587   4.970   5.519  0.1567 -0.6609 -0.0771
 1628SOL     OW 6283   6.389   5.601   0.499 -0.1253  0.4037 -0.5190
 1628SOL    HW2 6284   6.383   5.695   0.479 -2.3314  0.3974 -0.0814
 1628SOL    HW3 6285   6.299   5.573   0.510  0.5188 -1.7302 -0.3128
 1628SOL    MW4 6286   6.377   5.610   0.498  0.7853 -0.0736  0.0402
 1629SOL     OW 6287   2.282   0.478   0.396  0.1612 -0.2265 -0.2629
 1629SOL    HW2 6288   2.265   0.530   0.317 -1.8919  0.0724  0.3376
 1629SOL    HW3 6289   2.268   0.388   0.368 -0.0255 -0.1676 -0.3596
 1629SOL    MW4 6290   2.278   0.473   0.382  0.0201 -0.2121 -0.3935
 1630SOL     OW 6291   4.433   0.505   4.383 -0.4774  0.1270 -0.1560
 1630SOL    HW2 6292   4.487   0.568   4.334 -0.8333  0.6235  0.0745
 1630SOL    HW3 6293   4.356   0.556   4.409 -0.1881 -0.0644  1.1264
 1630SOL    MW4 6294   4.430   0.520   4.380 -0.1351  0.3357 -0.3129
 1631SOL     OW 6295   4.422   2.532   0.049 -0.1119  0.1035 -0.1259
 1631SOL    HW2 6296   4.353   2.575   0.101  1.3485  2.9490 -0.3555
 1631SOL    HW3 6297   4.385   2.526  -0.039 -0.8858 -0.5002  0.2288
 1631SOL    MW4 6298   4.408   2.537   0.044  0.1419  0.0991 -0.4151
 1632SOL     OW 6299   3.002   5.244   2.608  0.0231  0.3115 -0.1194
 1632SOL    HW2 6300   2.944   5.168   2.600  1.4420 -0.9119  0.7405
 1632SOL    HW3 6301   2.950   5.308   2.657 -1.1720 -0.0990 -0.8034
 1632SOL    MW4 6302   2.988   5.243   2.613  0.3494 -0.4783  0.2247
 1633SOL     OW 6303   2.236   5.546   1.565  0.2130  0.1586  0.2094
 1633SOL    HW2 6304   2.212   5.536   1.657  0.7640  1.0082  0.4569
 1633SOL    HW3 6305   2.265   5.459   1.539  0.8621  0.0924  1.0918
 1633SOL    MW4 6306   2.237   5.533   1.574 -0.6410 -0.3128  0.0064
 1634SOL     OW 6307   5.168   6.333   2.532 -0.0634  0.0491  0.5825
 1634SOL    HW2 6308   5.234   6.356   2.466  0.1862 -1.1154  0.3849
 1634SOL    HW3 6309   5.156   6.238   2.520  0.5367 -0.3360  2.7037
 1634SOL    MW4 6310   5.175   6.323   2.522 -0.6443  0.2270 -0.8151
 1635SOL     OW 6311   3.306   1.654   0.744  0.3637 -0.4088  0.1866
 1635SOL    HW2 6312   3.239   1.615   0.799  0.2397  2.1056  2.0064
 1635SOL    HW3 6313   3.389   1.619   0.779  0.1673 -2.5088 -1.2378
 1635SOL    MW4 6314   3.308   1.644   0.756  0.2223 -0.3889 -0.0754
 1636SOL     OW 6315   3.155   6.348   5.041  0.6218  0.3997  0.3019
 1636SOL    HW2 6316   3.215   6.339   5.115 -0.4211  0.9950  1.2692
 1636SOL    HW3 6317   3.160   6.441   5.018 -1.3294  0.9344  1.7102
 1636SOL    MW4 6318   3.164   6.359   5.048  0.0816  0.2058  0.1095
 1637SOL     OW 6319   0.819   2.980   5.722 -0.3572 -0.2238 -0.2251
 1637SOL    HW2 6320   0.844   2.889   5.703 -1.2012 -0.7781  1.1437
 1637SOL    HW3 6321   0.793   3.016   5.637  0.7972 -0.9935 -0.9249
 1637SOL    MW4 6322   0.819   2.972   5.708 -0.0834  0.2385 -0.0826
 1638SOL     OW 6323   4.502   1.613   4.833 -0.2232 -0.1093 -0.6682
 1638SOL    HW2 6324   4.502   1.521   4.858 -0.0748  0.1137  0.1747
 1638SOL    HW3 6325   4.458   1.615   4.748 -1.2217 -0.8126 -0.1854
 1638SOL    MW4 6326   4.496   1.601   4.825  0.0952 -0.2495  0.2705
 1639SOL     OW 6327   4.393   5.233   0.715  0.6171 -0.2913 -0.0743
 1639SOL    HW2 6328   4.482   5.265   0.731  0.6850 -1.5683  2.6651
 1639SOL    HW3 6329   4.339   5.277   0.781 -0.5709 -0.4775 -0.8933
 1639SOL    MW4 6330   4.398   5.243   0.726 -0.3018 -0.3326  0.5188
 1640SOL     OW 6331   5.531   5.804   4.920  0.1891 -0.2993 -0.0100
 1640SOL    HW2 6332   5.573   5.719   4.909  2.1237  0.7798 -2.0300
 1640SOL    HW3 6333   5.445   5.794   4.880  0.1423 -1.4399  0.3357
 1640SOL    MW4 6334   5.525   5.792   4.913 -0.1229 -0.2552  0.2637
 1641SOL     OW 6335   1.587   3.993   1.589  0.1118  0.5943 -0.0613
 1641SOL    HW2 6336   1.558   4.058   1.653 -3.2403 -3.2879  2.8697
 1641SOL    HW3 6337   1.681   3.985   1.604  0.0338  2.4074  1.7975
 1641SOL    MW4 6338   1.596   4.000   1.599  0.7131 -0.2706 -0.1511
 1642SOL     OW 6339   0.208   2.698   4.397 -0.0968 -0.0591 -0.0961
 1642SOL    HW2 6340   0.203   2.718   4.304 -1.7931  0.7300  0.1298
 1642SOL    HW3 6341   0.123   2.726   4.433  0.6625  0.0541  1.7535
 1642SOL    MW4 6342   0.196   2.704   4.390 -0.3288  0.0924  0.4991
 1643SOL     OW 6343   3.000   1.496   6.350 -0.3064  0.0990  0.0485
 1643SOL    HW2 6344   2.924   1.438   6.355 -1.2884  1.2514 -1.0775
 1643SOL    HW3 6345   2.982   1.565   6.414  0.5694 -0.4613  0.9324
 1643SOL    MW4 6346   2.988   1.497   6.359 -0.4766 -0.2331 -0.4484
 1644SOL     OW 6347   5.438   2.021   5.888  0.2651 -0.0920  0.0181
 1644SOL    HW2 6348   5.406   2.000   5.801  0.0396 -0.2436  0.1370
 1644SOL    HW3 6349   5.374   1.983   5.948  0.3126  0.1813  0.2476
 1644SOL    MW4 6350   5.426   2.013   5.885 -0.6167  0.3530  0.4088
 1645SOL     OW 6351   2.722   6.188   1.265  0.1544 -0.4832 -0.1452
 1645SOL    HW2 6352   2.685   6.104   1.293 -0.2960 -1.5275 -3.4072
 1645SOL    HW3 6353   2.655   6.253   1.288 -0.9549 -1.4947 -0.4237
 1645SOL    MW4 6354   2.708   6.186   1.272 -0.2240  0.3080 -0.1611
 1646SOL     OW 6355   2.061   4.545   2.412  0.5029  0.3029 -0.3202
 1646SOL    HW2 6356   2.129   4.546   2.479  0.2678 -1.2222 -0.0229
 1646SOL    HW3 6357   2.091   4.608   2.346  0.2790  2.6155  1.6167
 1646SOL    MW4 6358   2.074   4.554   2.412  0.3019 -0.3194 -0.1256
 1647SOL     OW 6359   6.263   0.613   5.636 -0.7080  0.5569 -0.1695
 1647SOL    HW2 6360   6.245   0.654   5.551 -0.1794 -1.4714 -1.3232
 1647SOL    HW3 6361   6.338   0.555   5.619  0.7645  1.6355  2.2070
 1647SOL    MW4 6362   6.270   0.611   5.622 -0.0232  0.3732  0.2466
 1648SOL     OW 6363   4.573   5.414   4.539 -0.1885  0.4596 -0.5699
 1648SOL    HW2 6364   4.499   5.397   4.597  0.4283  0.5585  0.2629
 1648SOL    HW3 6365   4.580   5.335   4.485 -0.1276 -0.0718  0.2032
 1648SOL    MW4 6366   4.564   5.402   4.539 -0.0178  0.2636 -0.3672
 1649SOL     OW 6367   1.377   1.693   5.922  0.7267  0.2477  0.5276
 1649SOL    HW2 6368   1.438   1.643   5.868 -2.9747 -2.4298 -1.6252
 1649SOL    HW3 6369   1.355   1.635   5.994  0.6634  1.1478  1.2526
 1649SOL    MW4 6370   1.382   1.679   5.924 -0.1136 -0.3145 -0.0493
 1650SOL     OW 6371   2.309   0.387   6.298  0.7938 -0.3839  0.2113
 1650SOL    HW2 6372   2.355   0.470   6.297  0.5253 -0.2392 -0.6692
 1650SOL    HW3 6373   2.377   0.321   6.309  1.1867 -0.1480 -0.7213
 1650SOL    MW4 6374   2.324   0.389   6.299  0.1806  0.2463  0.1718
 1651SOL     OW 6375   1.493   3.769   1.753  0.2711  0.0566  0.1876
 1651SOL    HW2 6376   1.517   3.839   1.691  0.7363 -1.1131 -0.9959
 1651SOL    HW3 6377   1.538   3.792   1.834 -0.3695  1.6425  0.1360
 1651SOL    MW4 6378   1.502   3.782   1.755  0.1567 -0.6844  0.6601
 1652SOL     OW 6379   3.246   0.364   3.153  0.2413 -0.3207  0.2961
 1652SOL    HW2 6380   3.247   0.328   3.064 -0.7474  1.4453 -0.4779
 1652SOL    HW3 6381   3.153   0.379   3.171  0.3777 -1.1116  1.8589
 1652SOL    MW4 6382   3.234   0.361   3.144 -0.0815 -0.3675  0.8588
 1653SOL     OW 6383   4.922   2.373   0.860  0.1143 -0.1686 -0.2811
 1653SOL    HW2 6384   4.853   2.388   0.796 -0.7838  0.3929  0.7810
 1653SOL    HW3 6385   4.896   2.292   0.904 -0.3032  0.4478  0.6405
 1653SOL    MW4 6386   4.910   2.364   0.857 -0.2525 -0.1999  0.1327
 1654SOL     OW 6387   0.138   3.539   3.438 -0.2153  0.3151  0.2084
 1654SOL    HW2 6388   0.223   3.576   3.462 -1.3007  2.7794  0.5174
 1654SOL    HW3 6389   0.093   3.530   3.522 -1.4868  2.3464 -0.2060
 1654SOL    MW4 6390   0.144   3.542   3.453 -0.0745  0.0816  0.5589
 1655SOL     OW 6391   1.734   4.210   2.026  0.5909 -0.2375  0.1430
 1655SOL    HW2 6392   1.783   4.292   2.015 -1.9927  1.2850 -0.9646
 1655SOL    HW3 6393   1.661   4.234   2.083  1.7855 -2.7858  2.9647
 1655SOL    MW4 6394   1.731   4.224   2.032  0.1400  0.3083  0.0996
 1656SOL     OW 6395   4.721   1.031   2.801 -0.2965 -0.3016  0.2757
 1656SOL    HW2 6396   4.784   1.100   2.821  0.3941 -1.0418  0.6844
 1656SOL    HW3 6397   4.710   0.983   2.883 -1.5088 -0.1031  0.2476
 1656SOL    MW4 6398   4.727   1.033   2.814  0.0985 -0.2461 -0.7985
 1657SOL     OW 6399   4.960   2.309   3.208  0.0999  0.7637 -0.1783
 1657SOL    HW2 6400   5.031   2.360   3.248 -0.0519 -0.1787  1.3860
 1657SOL    HW3 6401   4.971   2.221   3.244 -0.1247 -0.1440 -2.1956
 1657SOL    MW4 6402   4.971   2.304   3.218 -0.3397 -0.8864 -0.9367
 1658SOL     OW 6403   1.813   2.214   5.786  0.7171  0.2266  0.4036
 1658SOL    HW2 6404   1.807   2.166   5.869  0.1387 -1.0535 -0.3460
 1658SOL    HW3 6405   1.906   2.236   5.778  1.0864 -1.1850  0.5594
 1658SOL    MW4 6406   1.824   2.210   5.796 -0.5149 -0.0715 -0.8971
 1659SOL     OW 6407   0.994   3.480   2.618  0.0611 -0.1712 -0.0651
 1659SOL    HW2 6408   1.048   3.511   2.692  1.0563  0.2202 -0.9223
 1659SOL    HW3 6409   1.053   3.484   2.543 -0.6409 -1.5192 -0.7085
 1659SOL    MW4 6410   1.009   3.485   2.618 -0.0632  0.5162 -0.1952
 1660SOL     OW 6411   1.025   0.557   6.015  0.5075  0.0325  0.4059
 1660SOL    HW2 6412   1.034   0.461   6.012  0.5634 -0.0363  1.9967
 1660SOL    HW3 6413   0.933   0.572   6.035 -0.1801  0.4314 -2.5484
 1660SOL    MW4 6414   1.014   0.546   6.017 -0.6245 -0.1728  0.1426
 1661SOL     OW 6415   4.139   3.730   3.211  0.6929  0.2075 -0.0594
 1661SOL    HW2 6416   4.215   3.705   3.158  0.1475  0.1745 -0.8358
 1661SOL    HW3 6417   4.090   3.791   3.156  1.9143  2.9875  1.7161
 1661SOL    MW4 6418   4.143   3.735   3.197 -0.3891 -0.2008 -0.2977
 1662SOL     OW 6419   5.808   2.365   4.285 -0.1810 -0.0992 -0.5073
 1662SOL    HW2 6420   5.901   2.346   4.303  0.0336  1.1295 -0.2283
 1662SOL    HW3 6421   5.761   2.318   4.354  0.2875 -0.0470 -0.1402
 1662SOL    MW4 6422   5.814   2.356   4.297  0.0407 -0.3222  0.1627
 1663SOL     OW 6423   3.080   5.978   4.519 -0.1181 -0.3463 -0.2861
 1663SOL    HW2 6424   2.999   6.027   4.504 -0.2478 -0.9384 -1.6623
 1663SOL    HW3 6425   3.119   6.020   4.596 -1.6015  0.1057  0.2750
 1663SOL    MW4 6426   3.074   5.990   4.527 -0.1976 -1.1200  0.2125
 1664SOL     OW 6427   0.344   4.259   3.011 -0.6405 -0.3589 -0.2622
 1664SOL    HW2 6428   0.383   4.245   3.098  0.2417  0.4739 -0.5055
 1664SOL    HW3 6429   0.318   4.351   3.010 -0.7154 -0.3806 -0.8563
 1664SOL    MW4 6430   0.346   4.269   3.022 -0.4323 -0.8882  0.1567
 1665SOL     OW 6431   5.137   4.130   3.477  0.4071  0.2678  1.0376
 1665SOL    HW2 6432   5.163   4.179   3.555 -3.0810  0.2686  2.3414
 1665SOL    HW3 6433   5.153   4.039   3.500  0.2184  0.3245  1.3938
 1665SOL    MW4 6434   5.143   4.125   3.491 -0.2069  0.6301  0.2705
 1666SOL     OW 6435   3.012   1.599   5.160  0.5578 -0.0929  0.3280
 1666SOL    HW2 6436   3.058   1.681   5.141  1.3720 -1.0130 -2.1231
 1666SOL    HW3 6437   2.925   1.611   5.121  0.6843 -0.3704 -0.0505
 1666SOL    MW4 6438   3.007   1.611   5.152  0.0528  0.2659 -0.2915
 1667SOL     OW 6439   1.986   1.877   3.450 -0.5161 -0.2908  0.1391
 1667SOL    HW2 6440   2.037   1.934   3.392 -1.0965  1.8755  1.6259
 1667SOL    HW3 6441   1.906   1.857   3.401  0.3680 -1.1680 -0.9997
 1667SOL    MW4 6442   1.982   1.882   3.436  0.2695 -0.5830  0.3874
 1668SOL     OW 6443   4.716   0.645   5.961  0.1250  0.3134  0.3672
 1668SOL    HW2 6444   4.649   0.674   6.022 -0.1549  0.3955  0.0225
 1668SOL    HW3 6445   4.799   0.667   6.004 -0.0771  1.0636  0.3853
 1668SOL    MW4 6446   4.718   0.652   5.974 -0.0493  0.4393  0.6494
 1669SOL     OW 6447   3.763   0.363   4.965 -0.0589  0.7496 -0.0554
 1669SOL    HW2 6448   3.856   0.371   4.985 -0.0657  1.1895 -0.1961
 1669SOL    HW3 6449   3.760   0.320   4.880  0.0183  0.7948 -0.0814
 1669SOL    MW4 6450   3.775   0.358   4.956  0.0722  0.4463  0.4309
 1670SOL     OW 6451   0.371   0.277   1.098  0.1120  0.0892 -0.7027
 1670SOL    HW2 6452   0.282   0.302   1.074  0.2555 -0.0536 -1.3835
 1670SOL    HW3 6453   0.420   0.360   1.094  0.2112  0.0029 -1.2394
 1670SOL    MW4 6454   0.366   0.291   1.094 -0.3341 -0.4268 -0.4458
 1671SOL     OW 6455   2.865   0.938   0.499  0.1878  0.4927  0.2205
 1671SOL    HW2 6456   2.846   0.845   0.493  2.6864 -0.0963  0.1041
 1671SOL    HW3 6457   2.825   0.966   0.581 -2.5057 -0.0939 -0.8041
 1671SOL    MW4 6458   2.858   0.929   0.509 -0.1026  0.7788 -0.0169
 1672SOL     OW 6459   1.187   0.945   0.277  0.6200 -0.7408  0.1821
 1672SOL    HW2 6460   1.152   0.978   0.194 -1.6203  0.2544  1.4227
 1672SOL    HW3 6461   1.179   1.019   0.337 -1.2145 -2.4293  2.1706
 1672SOL    MW4 6462   1.181   0.959   0.274  0.5752 -0.4906 -0.3968
 1673SOL     OW 6463   1.023   2.946   4.145  0.0851  0.6686  0.0482
 1673SOL    HW2 6464   1.111   2.967   4.113  0.1965 -0.9241 -0.7743
 1673SOL    HW3 6465   1.033   2.945   4.241  0.9021  0.7631 -0.0266
 1673SOL    MW4 6466   1.036   2.949   4.154  0.1970  0.0347 -0.2863
 1674SOL     OW 6467   3.215   3.408   1.922  0.4779  0.6338 -0.0467
 1674SOL    HW2 6468   3.279   3.381   1.856  1.0458 -0.4600  0.9191
 1674SOL    HW3 6469   3.130   3.391   1.880  0.8224 -0.6727 -0.2850
 1674SOL    MW4 6470   3.212   3.402   1.907  0.3532  0.1527 -0.0249
 1675SOL     OW 6471   3.037   4.052   3.178  0.0613 -0.2777 -0.4928
 1675SOL    HW2 6472   3.059   4.057   3.271  1.0129 -3.8921 -0.3800
 1675SOL    HW3 6473   3.113   4.088   3.133  0.3385 -0.1119  0.0981
 1675SOL    MW4 6474   3.050   4.057   3.184  0.1353 -0.4496  0.0107
 1676SOL     OW 6475   1.568   2.304   5.092 -1.0501  0.1385  0.1893
 1676SOL    HW2 6476   1.643   2.248   5.115  0.9608  2.1386 -1.0816
 1676SOL    HW3 6477   1.538   2.338   5.176 -1.3310 -1.5901  0.8356
 1676SOL    MW4 6478   1.574   2.301   5.106 -0.4744  0.1416  0.1791
 1677SOL     OW 6479   1.739   0.956   4.970  0.5502 -0.0493  0.2082
 1677SOL    HW2 6480   1.797   0.996   5.035  0.3850 -1.5095  1.3061
 1677SOL    HW3 6481   1.671   0.913   5.021 -0.3895 -0.0503 -0.9933
 1677SOL    MW4 6482   1.738   0.955   4.985  0.6201  0.4376  0.1079
 1678SOL     OW 6483   5.273   0.542   0.147 -0.2923 -0.0863  0.1792
 1678SOL    HW2 6484   5.325   0.462   0.144 -1.0346 -0.5365 -1.9381
 1678SOL    HW3 6485   5.336   0.611   0.168  0.6826 -0.9723  0.2165
 1678SOL    MW4 6486   5.288   0.540   0.150 -0.1708  0.9327  0.1374
 1679SOL     OW 6487   4.905   5.749   0.799 -0.0457  0.4438 -0.0354
 1679SOL    HW2 6488   4.894   5.825   0.855 -0.4423 -0.2982  0.9303
 1679SOL    HW3 6489   4.856   5.679   0.843  0.8836 -0.5496 -0.5176
 1679SOL    MW4 6490   4.897   5.750   0.812 -0.4340 -0.3658 -0.7696
 1680SOL     OW 6491   0.950   6.056   2.023  0.2329 -0.4327 -0.3827
 1680SOL    HW2 6492   0.897   6.040   2.101  0.9600 -0.2840  0.1511
 1680SOL    HW3 6493   1.034   6.013   2.041  0.3817 -0.4660 -1.1141
 1680SOL    MW4 6494   0.954   6.048   2.036  0.5254 -0.4997 -0.1717
 1681SOL     OW 6495   4.903   1.686   1.368  0.2561 -0.4119 -0.5068
 1681SOL    HW2 6496   4.877   1.721   1.283 -2.5705  0.2326  0.5292
 1681SOL    HW3 6497   4.983   1.734   1.390 -1.0160  2.2001 -1.1657
 1681SOL    MW4 6498   4.910   1.697   1.360  0.1013  0.1523 -0.0951
 1682SOL     OW 6499   3.514   4.032   2.712 -0.6104  0.0209  0.3435
 1682SOL    HW2 6500   3.550   4.018   2.799  0.9311 -1.9423 -0.5388
 1682SOL    HW3 6501   3.429   3.989   2.713  0.5665 -2.4544  0.1422
 1682SOL    MW4 6502   3.507   4.025   2.723 -0.3665 -0.3421  0.5461
 1683SOL     OW 6503   2.058   0.012   5.787  0.7869 -0.0176 -0.4276
 1683SOL    HW2 6504   2.141   0.049   5.757  3.0363 -1.0575  3.7218
 1683SOL    HW3 6505   2.077  -0.080   5.804 -0.8048 -0.0350  1.6807
 1683SOL    MW4 6506   2.071   0.005   5.785  0.1632  0.1457  0.0342
 1684SOL     OW 6507   4.054   2.747   3.539 -0.0288  0.2678 -0.3448
 1684SOL    HW2 6508   3.969   2.743   3.582  1.0042  1.6142  2.0678
 1684SOL    HW3 6509   4.109   2.686   3.589  1.0007  1.2150 -0.2616
 1684SOL    MW4 6510   4.050   2.738   3.551 -0.6206  0.1642 -0.5865
 1685SOL     OW 6511   3.884   1.199   3.803 -0.3760  0.0466 -0.0198
 1685SOL    HW2 6512   3.929   1.261   3.745 -0.4399  0.6017  0.5107
 1685SOL    HW3 6513   3.823   1.153   3.746  0.0523  0.0926 -0.5268
 1685SOL    MW4 6514   3.882   1.201   3.788 -0.3465 -0.0417  0.6470
 1686SOL     OW 6515   2.984   2.432   2.010 -0.0152  0.2017 -0.1838
 1686SOL    HW2 6516   2.905   2.378   2.007  0.7478 -0.9342 -0.9928
 1686SOL    HW3 6517   2.958   2.511   2.058 -2.1555  0.7151 -1.9998
 1686SOL    MW4 6518   2.970   2.435   2.016  0.0289 -0.3184  0.3956
 1687SOL     OW 6519   1.907   4.969   1.473 -0.0536  0.2817  0.0838
 1687SOL    HW2 6520   1.811   4.974   1.475 -0.0432  0.6259  1.7832
 1687SOL    HW3 6521   1.926   4.875   1.472 -0.4224  0.1995  0.3708
 1687SOL    MW4 6522   1.897   4.957   1.473 -0.0762  0.3290  0.3137
 1688SOL     OW 6523   4.152   4.287   3.852  0.1228  0.7881  0.1119
 1688SOL    HW2 6524   4.193   4.222   3.795 -1.1937 -0.3939  0.4531
 1688SOL    HW3 6525   4.147   4.244   3.938 -1.4740  1.0104  0.1512
 1688SOL    MW4 6526   4.157   4.273   3.856 -0.0761 -0.4141  0.6902
 1689SOL     OW 6527   4.706   5.035   3.998  0.0513  0.1703  0.5091
 1689SOL    HW2 6528   4.781   5.066   4.050 -0.2587  0.8277  0.5791
 1689SOL    HW3 6529   4.745   4.976   3.934  0.7082  0.8693  0.2362
 1689SOL    MW4 6530   4.721   5.031   3.997  0.7542 -0.3988 -0.0689
 1690SOL     OW 6531   0.452   1.781   6.347  0.0017 -0.1389  0.2566
 1690SOL    HW2 6532   0.520   1.738   6.294  0.1090  0.0636  0.2311
 1690SOL    HW3 6533   0.491   1.791   6.433  1.8697  4.2558 -0.8357
 1690SOL    MW4 6534   0.466   1.777   6.351  0.0176  0.8440  0.3384
 1691SOL     OW 6535   2.034   3.826   3.507 -0.9151 -0.2729  0.3986
 1691SOL    HW2 6536   2.018   3.828   3.602 -0.5128  1.1854  0.4520
 1691SOL    HW3 6537   2.029   3.917   3.480  1.8697 -0.3135 -0.5015
 1691SOL    MW4 6538   2.031   3.838   3.516  0.2860  0.0768  0.1864
 1692SOL     OW 6539   3.920   0.605   3.958  0.0015  0.6026 -0.0588
 1692SOL    HW2 6540   3.918   0.534   4.022 -0.8794  0.3646 -0.3265
 1692SOL    HW3 6541   3.827   0.620   3.937  0.2778  0.4790 -1.4663
 1692SOL    MW4 6542   3.907   0.597   3.964  0.9044  0.4715 -0.0373
 1693SOL     OW 6543   0.888   2.393   1.084 -0.6585  0.3460 -0.3390
 1693SOL    HW2 6544   0.925   2.438   1.160 -0.2610  0.8225 -0.8053
 1693SOL    HW3 6545   0.862   2.464   1.025 -0.4018 -0.0245 -0.9087
 1693SOL    MW4 6546   0.890   2.408   1.086  0.0781 -0.5880 -0.4174
 1694SOL     OW 6547   4.665   1.916   5.354  0.9898 -0.1965 -0.6069
 1694SOL    HW2 6548   4.609   1.838   5.360  2.0841 -0.9338  0.3982
 1694SOL    HW3 6549   4.619   1.974   5.293 -0.0836 -1.4310 -1.0108
 1694SOL    MW4 6550   4.652   1.913   5.346  0.0024 -0.2372  0.1944
 1695SOL     OW 6551   1.015   4.666   0.564  0.0372  0.6453 -0.3359
 1695SOL    HW2 6552   1.053   4.695   0.647 -1.5926  0.5846  0.4606
 1695SOL    HW3 6553   0.966   4.587   0.586 -1.6080  1.4166 -1.0355
 1695SOL    MW4 6554   1.014   4.659   0.578  0.2686 -0.3951 -0.0706
 1696SOL     OW 6555   2.499   4.097   4.957  0.9351 -0.6394 -0.4397
 1696SOL    HW2 6556   2.503   4.123   5.049  0.9206 -0.3043 -0.5309
 1696SOL    HW3 6557   2.528   4.006   4.956  1.2961 -0.5291 -0.1531
 1696SOL    MW4 6558   2.503   4.088   4.969  0.4374 -0.1130  0.5749
 1697SOL     OW 6559   1.845   5.444   2.431 -0.3305 -0.5962  0.1367
 1697SOL    HW2 6560   1.872   5.365   2.478 -0.2020  0.2635  1.5673
 1697SOL    HW3 6561   1.776   5.482   2.486  0.1649  0.6966 -0.0920
 1697SOL    MW4 6562   1.839   5.438   2.445 -0.0226 -0.0863  0.2784
 1698SOL     OW 6563   3.433   3.230   0.702  0.2214  0.6944  0.5980
 1698SOL    HW2 6564   3.477   3.315   0.701  2.4003 -0.3550 -0.5912
 1698SOL    HW3 6565   3.479   3.181   0.771 -1.7063  0.7572  2.0000
 1698SOL    MW4 6566   3.445   3.235   0.711 -0.0003 -0.0601 -0.1121
 1699SOL     OW 6567   3.728   1.464   3.003  0.2335  0.2083  0.6287
 1699SOL    HW2 6568   3.732   1.559   3.008 -0.8369  0.2942  0.2380
 1699SOL    HW3 6569   3.819   1.436   2.995  0.6949  1.0802  2.3119
 1699SOL    MW4 6570   3.740   1.472   3.003  0.5963 -0.0935  0.2966
 1700SOL     OW 6571   0.324   3.251   2.506 -0.4798 -0.2954  0.6454
 1700SOL    HW2 6572   0.256   3.185   2.491  0.1902 -0.7070 -0.8293
 1700SOL    HW3 6573   0.287   3.332   2.471 -0.3398 -0.4506  0.1323
 1700SOL    MW4 6574   0.310   3.253   2.499 -0.0643 -0.4213 -0.5338
 1701SOL     OW 6575   1.550   2.668   1.329  0.3503  0.4836  0.1056
 1701SOL    HW2 6576   1.553   2.609   1.404  1.2555 -0.8622 -0.9298
 1701SOL    HW3 6577   1.517   2.750   1.364 -1.0980 -0.6639  1.5766
 1701SOL    MW4 6578   1.546   2.671   1.343 -0.0922  0.1539 -0.6897
 1702SOL     OW 6579   3.043   4.919   1.436  0.5007 -0.1764  0.1009
 1702SOL    HW2 6580   3.051   4.849   1.500  1.4520  0.3675  0.6074
 1702SOL    HW3 6581   2.949   4.937   1.430 -0.0629 -3.0638 -1.8103
 1702SOL    MW4 6582   3.032   4.913   1.443 -0.2097 -0.3713  0.3586
 1703SOL     OW 6583   5.192   5.413   6.038  0.3722 -0.2089  0.2862
 1703SOL    HW2 6584   5.129   5.479   6.011  1.4690  1.5999  1.9386
 1703SOL    HW3 6585   5.207   5.361   5.959 -0.0871  1.8881 -1.2566
 1703SOL    MW4 6586   5.186   5.414   6.024 -0.3662  0.2780  0.4797
 1704SOL     OW 6587   1.979   5.022   3.467 -0.7327 -0.2527 -0.1228
 1704SOL    HW2 6588   1.968   4.950   3.406 -4.1129  1.1784 -1.4686
 1704SOL    HW3 6589   1.910   5.008   3.533 -0.4792  0.9291  0.4209
 1704SOL    MW4 6590   1.968   5.011   3.468 -0.2173  0.2939 -0.5276
 1705SOL     OW 6591   1.047   6.293   3.181  0.0342  0.6100  0.1164
 1705SOL    HW2 6592   0.955   6.316   3.166 -0.3159 -0.1175  1.0331
 1705SOL    HW3 6593   1.060   6.214   3.128 -0.1081  0.2409  0.6294
 1705SOL    MW4 6594   1.036   6.286   3.172 -0.0569  0.1421 -0.2047
 1706SOL     OW 6595   2.184   5.005   3.175  0.0240  0.1984  0.1869
 1706SOL    HW2 6596   2.165   4.920   3.136  0.6214 -0.6438  1.6327
 1706SOL    HW3 6597   2.202   5.062   3.101  1.9403 -1.5088 -0.7731
 1706SOL    MW4 6598   2.184   5.001   3.160  0.2918 -0.3057  0.1126
 1707SOL     OW 6599   2.095   3.483   3.087 -0.4749  0.1838 -0.1903
 1707SOL    HW2 6600   2.040   3.514   3.159 -1.0766  1.2777 -1.0732
 1707SOL    HW3 6601   2.105   3.560   3.030  1.7698 -0.0510 -0.2121
 1707SOL    MW4 6602   2.089   3.498   3.089 -0.3387 -0.4266  0.3009
 1708SOL     OW 6603   1.752   3.757   0.822  0.0628 -0.1925  0.3597
 1708SOL    HW2 6604   1.809   3.702   0.875  0.3683  0.0205  0.2530
 1708SOL    HW3 6605   1.807   3.788   0.750 -0.6884 -1.5224 -0.8344
 1708SOL    MW4 6606   1.766   3.754   0.820  0.0307  0.6259 -0.0143
 1709SOL     OW 6607   3.821   2.922   6.013 -0.4849 -0.4506  0.0935
 1709SOL    HW2 6608   3.820   2.981   6.088  2.6630 -0.7419  0.5011
 1709SOL    HW3 6609   3.873   2.968   5.947  0.1742 -1.8364 -0.3901
 1709SOL    MW4 6610   3.828   2.936   6.014  0.2307 -0.5113 -0.1917
 1710SOL     OW 6611   2.435   0.759   0.867  0.1524  0.3620  0.4508
 1710SOL    HW2 6612   2.431   0.849   0.835  0.2444  0.3829  0.4973
 1710SOL    HW3 6613   2.345   0.736   0.887 -0.1388 -0.1734 -1.2837
 1710SOL    MW4 6614   2.423   0.767   0.865 -0.1413 -0.0042 -0.6233
 1711SOL     OW 6615   2.928   2.313   2.971 -0.7466 -0.3540  0.0172
 1711SOL    HW2 6616   2.844   2.280   3.003 -0.7303  1.0184  1.5796
 1711SOL    HW3 6617   2.907   2.396   2.928 -0.1413  0.2582  0.8759
 1711SOL    MW4 6618   2.914   2.320   2.970 -0.3994 -0.1981 -0.3655
 1712SOL     OW 6619   5.352   0.908   0.631 -0.2975 -0.2732  0.0614
 1712SOL    HW2 6620   5.378   0.906   0.724 -1.1741 -0.4834  0.3117
 1712SOL    HW3 6621   5.418   0.855   0.587  0.5641  0.4468  0.4463
 1712SOL    MW4 6622   5.364   0.901   0.638  0.1737 -0.2183 -0.0499
 1713SOL     OW 6623   3.431   5.019   5.137  0.2076 -0.1000  0.3083
 1713SOL    HW2 6624   3.459   5.097   5.088 -1.6165  0.2668 -0.2180
 1713SOL    HW3 6625   3.370   5.052   5.202 -2.8862 -1.2899 -1.7581
 1713SOL    MW4 6626   3.427   5.034   5.139  0.2182  0.5054 -0.9531
 1714SOL     OW 6627   2.857   0.549   0.208  0.5712 -0.0915 -0.0517
 1714SOL    HW2 6628   2.814   0.597   0.278 -0.0298  0.5618 -0.8416
 1714SOL    HW3 6629   2.854   0.458   0.235 -1.9928 -0.1813 -0.3903
 1714SOL    MW4 6630   2.851   0.544   0.221  0.1857  0.0770  0.7113
 1715SOL     OW 6631   4.477   2.911   3.440  0.0322 -0.4225  0.2165
 1715SOL    HW2 6632   4.518   2.829   3.467  2.3535  0.0219 -1.6404
 1715SOL    HW3 6633   4.518   2.977   3.496  1.3225 -0.0749 -1.0860
 1715SOL    MW4 6634   4.488   2.909   3.451  0.2567  0.1264 -0.1631
 1716SOL     OW 6635   2.278   2.990   5.134 -0.7068  0.0390 -0.0499
 1716SOL    HW2 6636   2.298   3.063   5.076  0.6045  0.2090  0.5704
 1716SOL    HW3 6637   2.363   2.955   5.160 -1.2263 -0.0627  1.7085
 1716SOL    MW4 6638   2.292   2.995   5.130 -0.2909 -0.2287 -0.2719
 1717SOL     OW 6639   6.353   3.379   0.211  0.1298 -0.9598 -0.1033
 1717SOL    HW2 6640   6.352   3.309   0.277  1.5192  0.8744  2.0081
 1717SOL    HW3 6641   6.436   3.424   0.225 -1.6675  2.6008  0.3728
 1717SOL    MW4 6642   6.364   3.375   0.222  0.2290  0.2001  0.2723
 1718SOL     OW 6643   0.408   4.085   4.213  0.0925 -0.5293  0.5320
 1718SOL    HW2 6644   0.340   4.090   4.146  0.8989  0.3639 -0.2541
 1718SOL    HW3 6645   0.377   4.143   4.283  0.4361  0.6101 -0.2212
 1718SOL    MW4 6646   0.395   4.093   4.213  0.0347  0.5452 -0.2045
 1719SOL     OW 6647   5.086   5.806   2.057  0.9378 -0.2726 -0.0369
 1719SOL    HW2 6648   5.156   5.783   2.118  1.3795  0.0135 -0.4300
 1719SOL    HW3 6649   5.059   5.722   2.019  1.0827 -0.3783  0.0925
 1719SOL    MW4 6650   5.091   5.792   2.060 -0.2904 -0.4155 -0.5104
 1720SOL     OW 6651   1.464   5.028   0.504  0.3116  0.2009  0.0858
 1720SOL    HW2 6652   1.503   5.116   0.502  0.0973  0.3049  0.4730
 1720SOL    HW3 6653   1.370   5.043   0.497  0.2188  0.0495  0.8859
 1720SOL    MW4 6654   1.457   5.042   0.503  0.6794 -0.0532 -0.0075
 1721SOL     OW 6655   4.483   1.317   3.765 -0.0565  0.1514 -0.3798
 1721SOL    HW2 6656   4.414   1.256   3.792  1.1506 -0.7000  0.9098
 1721SOL    HW3 6657   4.470   1.394   3.821  1.1806 -0.7911  1.2956
 1721SOL    MW4 6658   4.472   1.319   3.776 -0.0099  0.5077  0.1627
 1722SOL     OW 6659   4.753   2.401   6.193  0.3239 -0.3185 -0.2541
 1722SOL    HW2 6660   4.674   2.408   6.140  1.4231  0.9580 -1.8187
 1722SOL    HW3 6661   4.734   2.331   6.255 -2.0422  0.0120 -0.5240
 1722SOL    MW4 6662   4.740   2.392   6.194 -0.5579  0.8440  0.1503
 1723SOL     OW 6663   1.187   5.606   2.276  0.3479 -0.2315 -0.1063
 1723SOL    HW2 6664   1.176   5.523   2.322  0.2447 -0.0788  0.1442
 1723SOL    HW3 6665   1.231   5.664   2.339  1.7506 -0.5343 -0.7721
 1723SOL    MW4 6666   1.191   5.603   2.290  0.3552  0.4562 -0.5532
 1724SOL     OW 6667   4.620   3.987   5.494 -0.1179  0.6929 -0.4394
 1724SOL    HW2 6668   4.556   4.055   5.513  0.2605  0.6153  1.2087
 1724SOL    HW3 6669   4.579   3.906   5.523  0.7578  0.6626  0.7932
 1724SOL    MW4 6670   4.606   3.985   5.500  0.5501 -0.3910 -0.2702
 1725SOL     OW 6671   5.943   0.096   5.654  0.7937  0.2523 -0.1645
 1725SOL    HW2 6672   5.948   0.151   5.575 -2.0042  0.8019 -0.0627
 1725SOL    HW3 6673   5.883   0.143   5.712 -0.0078 -1.8527  0.8166
 1725SOL    MW4 6674   5.936   0.110   5.651 -0.4631  0.1242  0.2488
 1726SOL     OW 6675   5.031   3.268   3.643  0.1980  0.3103  0.2586
 1726SOL    HW2 6676   5.052   3.353   3.606 -0.7882  0.7329  0.6353
 1726SOL    HW3 6677   4.957   3.236   3.592  0.5511 -0.3248  0.1257
 1726SOL    MW4 6678   5.024   3.275   3.632  0.4688 -0.1980 -0.1687
 1727SOL     OW 6679   2.039   1.866   5.829 -0.1524 -0.0594 -0.7178
 1727SOL    HW2 6680   2.011   1.867   5.737 -2.8172 -2.1543 -0.0522
 1727SOL    HW3 6681   2.029   1.775   5.856 -2.0338  0.9010  2.3317
 1727SOL    MW4 6682   2.034   1.854   5.820  0.1154 -0.3753  0.0556
 1728SOL     OW 6683   2.484   1.563   2.976  0.2026  0.1546 -0.3673
 1728SOL    HW2 6684   2.430   1.501   2.927 -0.1644 -1.3808  1.8279
 1728SOL    HW3 6685   2.573   1.544   2.948  0.0184 -0.8358 -0.3119
 1728SOL    MW4 6686   2.489   1.552   2.966 -0.1081 -0.0320  0.1407
 1729SOL     OW 6687   1.000   4.402   0.132  0.1532  0.2064  0.1420
 1729SOL    HW2 6688   1.034   4.450   0.208 -0.3920 -1.2344  1.3455
 1729SOL    HW3 6689   0.906   4.418   0.133  0.1036 -0.0651 -0.0655
 1729SOL    MW4 6690   0.992   4.410   0.142 -0.4887  0.0990  0.4980
 1730SOL     OW 6691   1.915   4.638   1.700  0.2970  0.2481  0.1339
 1730SOL    HW2 6692   1.964   4.602   1.774  0.0428  0.9436  0.6452
 1730SOL    HW3 6693   1.860   4.707   1.738 -0.0115  0.4519 -0.6604
 1730SOL    MW4 6694   1.914   4.643   1.715  0.1501  0.3726  0.2826
 1731SOL     OW 6695   4.616   0.462   5.524  0.2450 -0.2656  0.4522
 1731SOL    HW2 6696   4.615   0.554   5.551 -0.0991 -0.0318 -0.3360
 1731SOL    HW3 6697   4.606   0.465   5.429 -0.1452 -1.1372  0.4606
 1731SOL    MW4 6698   4.614   0.475   5.515  0.0537 -0.1792 -0.5485
 1732SOL     OW 6699   3.749   6.202   4.722  0.1069  0.4032 -0.0563
 1732SOL    HW2 6700   3.676   6.230   4.778  0.9493  0.2183  1.1655
 1732SOL    HW3 6701   3.770   6.114   4.752  0.3638  0.1608 -0.9076
 1732SOL    MW4 6702   3.742   6.194   4.733  0.2134 -0.5111  0.2258
 1733SOL     OW 6703   3.002   3.035   5.669  0.0845  0.4805  0.3247
 1733SOL    HW2 6704   3.085   3.061   5.711  1.0663 -1.5129 -0.2582
 1733SOL    HW3 6705   3.009   3.069   5.580  0.5522 -0.1474  0.1111
 1733SOL    MW4 6706   3.014   3.043   5.663 -0.9588 -0.4857  0.4365
 1734SOL     OW 6707   3.645   6.357   5.691  0.0655  0.4722  0.2178
 1734SOL    HW2 6708   3.569   6.339   5.748  0.2347 -0.5998  0.1389
 1734SOL    HW3 6709   3.688   6.432   5.731  0.5097 -0.5947  1.8880
 1734SOL    MW4 6710   3.640   6.364   5.704  0.0822  0.7577 -0.7792
 1735SOL     OW 6711   1.679   2.705   0.525  0.5808  0.1025  0.4714
 1735SOL    HW2 6712   1.762   2.749   0.510  1.2453 -1.6238 -1.4442
 1735SOL    HW3 6713   1.625   2.770   0.570  2.8641  1.3330  1.6186
 1735SOL    MW4 6714   1.683   2.719   0.529 -0.1215 -0.0160 -0.0223
 1736SOL     OW 6715   3.015   6.007   2.524  0.0462  0.0100 -0.0877
 1736SOL    HW2 6716   3.094   5.992   2.577 -0.3777  0.9144  0.8258
 1736SOL    HW3 6717   2.952   5.943   2.557  0.0002  0.1237  0.0479
 1736SOL    MW4 6718   3.017   5.996   2.535  0.0032 -0.6322  0.0186
 1737SOL     OW 6719   4.359   5.717   3.087 -0.4264 -0.3857  0.2170
 1737SOL    HW2 6720   4.309   5.716   3.005 -1.1596 -1.1230  0.6499
 1737SOL    HW3 6721   4.353   5.808   3.117  2.5337  0.7492 -2.0742
 1737SOL    MW4 6722   4.351   5.729   3.080 -0.6886  0.2490 -0.0971
 1738SOL     OW 6723   0.830   3.566   5.620  0.3347 -0.0132 -1.0582
 1738SOL    HW2 6724   0.901   3.511   5.651  0.0611  0.2328  0.0697
 1738SOL    HW3 6725   0.817   3.541   5.529  1.1807 -0.7733 -0.9762
 1738SOL    MW4 6726   0.837   3.555   5.612 -0.8034  0.6738 -0.5344
 1739SOL     OW 6727   1.336   1.617   3.249  0.1921 -0.1254 -0.0071
 1739SOL    HW2 6728   1.338   1.688   3.185  1.6829  0.0173  0.1490
 1739SOL    HW3 6729   1.364   1.539   3.201  0.6518 -0.1561  0.2943
 1739SOL    MW4 6730   1.340   1.616   3.235  0.3293 -0.4707 -0.2403
 1740SOL     OW 6731   3.175   4.450   2.673 -0.2058  0.5519  0.2944
 1740SOL    HW2 6732   3.251   4.456   2.615 -0.9679  1.1148 -0.6599
 1740SOL    HW3 6733   3.175   4.532   2.722  0.7164 -0.1198  1.4893
 1740SOL    MW4 6734   3.185   4.461   2.672 -0.2782 -0.6333 -0.5882
 1741SOL     OW 6735   2.599   4.136   5.228  0.5869 -0.1141  0.3129
 1741SOL    HW2 6736   2.680   4.101   5.192 -0.2370 -1.6025 -0.1926
 1741SOL    HW3 6737   2.609   4.131   5.323 -0.0758 -3.3233  0.3085
 1741SOL    MW4 6738   2.611   4.131   5.235  0.5597 -0.6679 -0.2886
 1742SOL     OW 6739   3.653   2.580   4.070  0.1278  0.3038 -0.6325
 1742SOL    HW2 6740   3.716   2.583   3.999 -0.5590 -0.0527 -1.2688
 1742SOL    HW3 6741   3.697   2.531   4.139  0.5302  0.0204 -1.0862
 1742SOL    MW4 6742   3.667   2.574   4.070 -0.4477 -0.4231 -0.2063
 1743SOL     OW 6743   1.435   1.545   1.619  0.1074 -0.1082  0.1304
 1743SOL    HW2 6744   1.436   1.508   1.707  1.2467  2.2903  1.2352
 1743SOL    HW3 6745   1.403   1.635   1.632 -0.6456 -0.0157 -2.0562
 1743SOL    MW4 6746   1.431   1.552   1.632 -0.1625 -0.2692  0.6150
 1744SOL     OW 6747   4.143   0.854   4.463  0.3118  0.3248 -0.2302
 1744SOL    HW2 6748   4.140   0.794   4.388  1.9218  0.4691 -0.4546
 1744SOL    HW3 6749   4.236   0.868   4.479 -0.0057  2.4381  0.0995
 1744SOL    MW4 6750   4.155   0.848   4.455 -0.4807  0.2818  0.0985
 1745SOL     OW 6751   5.931   3.459   2.223 -0.2699  0.1229  0.0186
 1745SOL    HW2 6752   5.855   3.516   2.236 -0.3686  0.1062 -0.4639
 1745SOL    HW3 6753   5.993   3.487   2.290 -0.4067  0.6572 -0.0687
 1745SOL    MW4 6754   5.929   3.471   2.234  0.5119 -0.3792 -1.0171
 1746SOL     OW 6755   1.570   0.800   5.126  0.4799 -0.1001  0.6355
 1746SOL    HW2 6756   1.593   0.725   5.071 -1.9240 -0.5751  0.1418
 1746SOL    HW3 6757   1.622   0.789   5.205  1.1616 -1.5632  0.0289
 1746SOL    MW4 6758   1.580   0.789   5.129 -0.6497 -0.3140 -0.5432
 1747SOL     OW 6759   1.437   2.860   2.705  0.0379 -0.5595  0.0210
 1747SOL    HW2 6760   1.531   2.845   2.693 -0.1815 -1.7721 -0.3922
 1747SOL    HW3 6761   1.412   2.799   2.774 -0.7480 -1.5540 -1.0857
 1747SOL    MW4 6762   1.446   2.850   2.712  0.2924 -1.0371  0.4805
 1748SOL     OW 6763   2.133   1.335   3.725 -0.0251  0.3777  0.2450
 1748SOL    HW2 6764   2.194   1.349   3.652 -0.7315  1.8278 -0.1092
 1748SOL    HW3 6765   2.112   1.423   3.756  1.2083 -0.2033  3.0614
 1748SOL    MW4 6766   2.139   1.348   3.719 -0.3355 -0.2588  0.1403
 1749SOL     OW 6767   5.192   3.048   2.593 -0.2207 -0.2199  0.1296
 1749SOL    HW2 6768   5.258   3.114   2.616  1.1863 -1.8603  0.9580
 1749SOL    HW3 6769   5.112   3.099   2.579  0.4482  1.5504  2.1766
 1749SOL    MW4 6770   5.190   3.064   2.594 -0.5595  0.1677  0.6206
 1750SOL     OW 6771   4.994   1.878   2.658  0.1052  0.0990  0.4054
 1750SOL    HW2 6772   5.090   1.879   2.656  0.1531  2.2666 -2.5195
 1750SOL    HW3 6773   4.972   1.924   2.739  1.5321  0.0631  0.8512
 1750SOL    MW4 6774   5.004   1.884   2.668 -0.0935  0.3361  0.5691
 1751SOL     OW 6775   5.833   6.129   0.747  0.9135 -0.7993  0.3729
 1751SOL    HW2 6776   5.911   6.163   0.705  0.7653  0.2336  0.8885
 1751SOL    HW3 6777   5.772   6.110   0.675  0.9478  0.1974  0.0676
 1751SOL    MW4 6778   5.835   6.131   0.732  0.0746  0.3402 -0.5322
 1752SOL     OW 6779   2.079   2.469   4.323  0.2654  0.3582  0.6812
 1752SOL    HW2 6780   2.108   2.516   4.402 -1.0925 -0.8686  1.9644
 1752SOL    HW3 6781   2.016   2.405   4.355 -0.3511 -0.1616 -1.4388
 1752SOL    MW4 6782   2.075   2.467   4.338  0.0342  0.1099  0.5347
 1753SOL     OW 6783   6.419   1.318   1.471  0.6045  0.1036 -0.0272
 1753SOL    HW2 6784   6.451   1.229   1.462  0.5531  0.1334 -0.5110
 1753SOL    HW3 6785   6.443   1.343   1.560 -1.3369 -1.1669  0.9172
 1753SOL    MW4 6786   6.427   1.310   1.481  0.2767 -0.3218  0.2330
 1754SOL     OW 6787   3.147   5.085   2.264  0.3179 -0.1345 -0.1978
 1754SOL    HW2 6788   3.088   5.058   2.194  1.5415 -0.5781 -1.0813
 1754SOL    HW3 6789   3.111   5.168   2.294 -1.5536 -1.0507  0.2571
 1754SOL    MW4 6790   3.135   5.092   2.259 -0.1281  0.1133 -0.0537
 1755SOL     OW 6791   0.849   0.462   5.771 -0.2324  0.2535 -0.4913
 1755SOL    HW2 6792   0.943   0.446   5.762 -0.5217 -1.7290 -0.3481
 1755SOL    HW3 6793   0.829   0.442   5.862 -0.8738  0.1346 -0.6487
 1755SOL    MW4 6794   0.859   0.457   5.782 -0.7571  0.3931  0.1486
 1756SOL     OW 6795   4.359   0.252   3.690 -0.1046  0.6518  0.1972
 1756SOL    HW2 6796   4.341   0.164   3.723  1.1309 -0.2785 -1.4892
 1756SOL    HW3 6797   4.359   0.243   3.595 -0.2457  2.5502 -0.0248
 1756SOL    MW4 6798   4.356   0.239   3.682 -0.1378  0.3005 -0.3349
 1757SOL     OW 6799   2.029   5.669   6.289  0.2452  0.1899 -0.0574
 1757SOL    HW2 6800   1.940   5.646   6.260  0.2569 -0.2361  0.2335
 1757SOL    HW3 6801   2.079   5.678   6.207  0.4643 -1.7767 -0.2036
 1757SOL    MW4 6802   2.024   5.667   6.274 -0.3371  0.1256  0.0265
 1758SOL     OW 6803   1.743   3.921   4.927 -0.2505  1.0557 -0.2903
 1758SOL    HW2 6804   1.806   3.913   4.998 -0.6020 -0.0189 -0.0881
 1758SOL    HW3 6805   1.794   3.906   4.847 -0.2792 -0.0236 -0.1141
 1758SOL    MW4 6806   1.758   3.918   4.926  0.1521  0.1327 -0.8212
 1759SOL     OW 6807   4.911   3.031   6.162  0.7631 -0.2141  0.1068
 1759SOL    HW2 6808   4.908   3.122   6.193  2.4315  0.2779 -1.0539
 1759SOL    HW3 6809   4.969   3.033   6.086 -0.8840 -1.8866 -1.3123
 1759SOL    MW4 6810   4.918   3.043   6.156  0.2228 -0.3572  0.6044
 1760SOL     OW 6811   1.012   5.504   1.130  0.5991  0.3860 -0.3272
 1760SOL    HW2 6812   1.070   5.499   1.055  0.1635  0.7968 -0.6953
 1760SOL    HW3 6813   1.034   5.586   1.173 -1.4577  1.9189 -1.9599
 1760SOL    MW4 6814   1.023   5.514   1.126 -0.0691 -0.2390  0.0251
 1761SOL     OW 6815   3.679   5.303   1.479  0.1311 -0.2909  0.1610
 1761SOL    HW2 6816   3.678   5.316   1.574  0.5267 -1.0465  0.2816
 1761SOL    HW3 6817   3.594   5.263   1.460  1.5216 -4.0375  0.8494
 1761SOL    MW4 6818   3.668   5.299   1.489 -0.0001  0.4320 -0.3580
 1762SOL     OW 6819   0.402   3.095   3.264  0.1876  0.3312  0.1903
 1762SOL    HW2 6820   0.445   3.015   3.294  2.1889  0.9346 -0.8903
 1762SOL    HW3 6821   0.446   3.165   3.312 -1.4381  0.8363  1.0084
 1762SOL    MW4 6822   0.414   3.093   3.274  0.0384 -0.3235 -1.4438
 1763SOL     OW 6823   3.585   0.302   4.459 -0.4783 -0.5579 -0.1997
 1763SOL    HW2 6824   3.584   0.366   4.388 -0.3363  0.5786  0.7818
 1763SOL    HW3 6825   3.503   0.316   4.505  0.7732  1.0197  1.7646
 1763SOL    MW4 6826   3.574   0.313   4.456 -0.0973  0.0451  0.5257
 1764SOL     OW 6827   6.097   4.443   1.989 -0.1110  0.2865 -0.3689
 1764SOL    HW2 6828   6.153   4.457   2.065  1.0119  2.5946 -1.5209
 1764SOL    HW3 6829   6.024   4.504   2.001 -1.9354 -1.9456  0.5884
 1764SOL    MW4 6830   6.095   4.453   2.000 -0.5376  0.2300 -0.6802
 1765SOL     OW 6831   2.666   3.274   1.885 -0.0790  0.0640  0.3812
 1765SOL    HW2 6832   2.592   3.214   1.891  0.0987 -0.3050 -0.8193
 1765SOL    HW3 6833   2.677   3.290   1.791  1.4800 -0.0511  0.5152
 1765SOL    MW4 6834   2.658   3.268   1.874  0.0291 -0.2620  0.0497
 1766SOL     OW 6835   4.262   1.526   5.476  0.7264 -0.0678  0.0303
 1766SOL    HW2 6836   4.315   1.554   5.551  1.7510  0.5813 -0.9111
 1766SOL    HW3 6837   4.193   1.592   5.470 -0.4923 -1.1307  1.5027
 1766SOL    MW4 6838   4.260   1.538   5.485  0.1364  0.3251  0.4845
 1767SOL     OW 6839   3.764   0.274   1.817  0.4597  0.2471 -0.9675
 1767SOL    HW2 6840   3.739   0.296   1.727  2.3390  1.6560 -1.2401
 1767SOL    HW3 6841   3.710   0.331   1.871  0.7613  0.9019 -1.3394
 1767SOL    MW4 6842   3.754   0.285   1.812 -0.4252 -0.0027 -1.0708
 1768SOL     OW 6843   1.618   1.105   3.366 -0.0765 -0.0225  0.6739
 1768SOL    HW2 6844   1.647   1.183   3.414  0.0838 -0.6455  1.6078
 1768SOL    HW3 6845   1.699   1.065   3.334 -0.1899  0.4723 -0.2821
 1768SOL    MW4 6846   1.633   1.110   3.368 -0.2129 -0.4153 -0.3840
 1769SOL     OW 6847   3.734   3.591   0.114  0.1765  0.6529 -0.4809
 1769SOL    HW2 6848   3.725   3.640   0.196  1.0599 -0.0600  0.0675
 1769SOL    HW3 6849   3.653   3.609   0.067 -0.5219  0.7802  0.7131
 1769SOL    MW4 6850   3.723   3.600   0.119 -0.5735 -0.5255 -0.1424
 1770SOL     OW 6851   2.114   4.216   3.180  0.5305 -0.2485  0.2888
 1770SOL    HW2 6852   2.150   4.147   3.236 -3.7593 -1.1727  2.2851
 1770SOL    HW3 6853   2.123   4.181   3.091  2.0141 -1.5507  0.8955
 1770SOL    MW4 6854   2.120   4.202   3.176 -0.0986  0.3128  0.4642
 1771SOL     OW 6855   3.190   4.552   2.015  0.3402  0.5059  0.1762
 1771SOL    HW2 6856   3.251   4.526   1.946  0.2810  0.3735  0.1741
 1771SOL    HW3 6857   3.104   4.536   1.978  0.2442  2.2896 -0.4706
 1771SOL    MW4 6858   3.187   4.546   2.001  0.0791  0.1499 -0.0178
 1772SOL     OW 6859   1.223   3.676   5.338  0.0068 -0.1698  0.1637
 1772SOL    HW2 6860   1.269   3.599   5.373  0.6752  0.7901  1.4999
 1772SOL    HW3 6861   1.240   3.673   5.244  1.3257 -0.8219  0.3956
 1772SOL    MW4 6862   1.231   3.665   5.330 -0.0071 -0.1101 -0.3390
 1773SOL     OW 6863   6.072   0.337   6.098 -0.3052  0.5695  0.2694
 1773SOL    HW2 6864   5.998   0.340   6.159 -0.3416  0.2068  0.2476
 1773SOL    HW3 6865   6.149   0.347   6.153 -0.3320  0.1272  0.3899
 1773SOL    MW4 6866   6.072   0.338   6.113  0.1148  0.5352  0.4025
 1774SOL     OW 6867   0.331   5.935   0.218 -0.0004 -0.3587 -0.5208
 1774SOL    HW2 6868   0.237   5.934   0.200  0.4384  1.7261 -3.7591
 1774SOL    HW3 6869   0.367   5.866   0.161  0.5492 -0.3802 -0.1590
 1774SOL    MW4 6870   0.324   5.926   0.208 -0.0467 -0.2140 -0.0276
 1775SOL     OW 6871   1.361   5.643   0.830  0.0502 -0.0551 -0.4368
 1775SOL    HW2 6872   1.323   5.616   0.747  2.2402  1.1152 -1.9146
 1775SOL    HW3 6873   1.306   5.716   0.859 -0.3846 -0.0974 -1.1452
 1775SOL    MW4 6874   1.349   5.649   0.823 -0.2015 -0.4976  0.2248
 1776SOL     OW 6875   5.441   3.706   5.729  0.0556 -0.0180 -0.1031
 1776SOL    HW2 6876   5.421   3.760   5.653 -0.4903  0.4605  0.3681
 1776SOL    HW3 6877   5.466   3.622   5.692  1.1224  0.6075 -0.8548
 1776SOL    MW4 6878   5.441   3.702   5.714 -0.2945  0.4891 -0.3100
 1777SOL     OW 6879   1.820   6.233   0.469 -0.3094 -0.3779  0.5753
 1777SOL    HW2 6880   1.861   6.147   0.457 -2.1108 -1.0340 -1.7231
 1777SOL    HW3 6881   1.842   6.281   0.389  0.4442  1.2710  1.7115
 1777SOL    MW4 6882   1.828   6.228   0.457  0.3721  0.1797 -0.3645
 1778SOL     OW 6883   2.300   4.212   1.104 -0.5389 -0.5044 -0.3398
 1778SOL    HW2 6884   2.323   4.279   1.039 -3.7214 -0.1552 -1.3067
 1778SOL    HW3 6885   2.366   4.221   1.172  1.5089  0.8391 -2.3301
 1778SOL    MW4 6886   2.312   4.222   1.104 -0.3593  0.3538  0.1087
 1779SOL     OW 6887   4.649   1.740   3.972 -0.2678 -0.1755  0.0717
 1779SOL    HW2 6888   4.586   1.683   3.928 -0.0124  0.0095 -0.5415
 1779SOL    HW3 6889   4.733   1.696   3.963 -0.1713 -0.0106  0.1475
 1779SOL    MW4 6890   4.652   1.727   3.965 -0.2206  0.3021 -0.3525
 1780SOL     OW 6891   5.820   5.367   1.343  0.0012  0.0575 -0.5679
 1780SOL    HW2 6892   5.779   5.312   1.410 -1.8139  1.4047 -0.4818
 1780SOL    HW3 6893   5.841   5.448   1.389 -1.6871  1.1764 -1.6442
 1780SOL    MW4 6894   5.817   5.370   1.358 -0.0065  0.3637  0.2250
 1781SOL     OW 6895   2.486   2.740   0.374 -0.4453 -0.3203 -0.1121
 1781SOL    HW2 6896   2.462   2.662   0.424 -1.2208  0.3821  0.6492
 1781SOL    HW3 6897   2.405   2.765   0.330 -0.4886  0.6643  0.5063
 1781SOL    MW4 6898   2.472   2.733   0.375  0.5384  1.0687  0.5639
 1782SOL     OW 6899   4.183   5.209   2.213  0.0633  0.3091  0.1581
 1782SOL    HW2 6900   4.220   5.257   2.139  0.7075  1.9958  1.4764
 1782SOL    HW3 6901   4.239   5.132   2.222 -0.0906  0.0276 -1.1455
 1782SOL    MW4 6902   4.196   5.205   2.205 -0.4686 -0.1849  0.1019
 1783SOL     OW 6903   1.491   3.961   0.011  0.1728 -0.2413 -0.5534
 1783SOL    HW2 6904   1.546   3.934  -0.063  1.9058  0.0839  0.5565
 1783SOL    HW3 6905   1.515   3.902   0.082  0.1349  0.8060  0.3602
 1783SOL    MW4 6906   1.501   3.950   0.010 -0.0165 -0.5278 -0.0925
 1784SOL     OW 6907   5.256   2.397   1.900  0.1814  0.2875  0.1600
 1784SOL    HW2 6908   5.292   2.381   1.987 -0.5146 -0.6498  0.2846
 1784SOL    HW3 6909   5.305   2.473   1.868  2.5461 -1.1380  0.1682
 1784SOL    MW4 6910   5.267   2.405   1.907 -0.1593  0.2602  0.3866
 1785SOL     OW 6911   2.701   2.813   1.008  0.4009  0.4619 -0.5152
 1785SOL    HW2 6912   2.701   2.726   1.049 -3.5842 -0.5899 -2.3053
 1785SOL    HW3 6913   2.749   2.801   0.926 -0.2176 -0.1180 -0.8046
 1785SOL    MW4 6914   2.708   2.800   1.003  0.1059 -0.5613 -0.1315
 1786SOL     OW 6915   0.644   6.402   2.732  0.4139 -0.0527  0.2446
 1786SOL    HW2 6916   0.667   6.374   2.643  0.4909 -0.3751  0.3654
 1786SOL    HW3 6917   0.725   6.393   2.782  0.2162 -0.4579  0.4917
 1786SOL    MW4 6918   0.658   6.397   2.727 -0.1840  0.1237  0.0879
 1787SOL     OW 6919   5.133   0.101   1.562  0.4156 -0.1221  0.1867
 1787SOL    HW2 6920   5.084   0.018   1.561  2.0737 -1.1759  1.1997
 1787SOL    HW3 6921   5.213   0.082   1.513  0.3456  1.2337 -0.5011
 1787SOL    MW4 6922   5.137   0.087   1.556  0.0342  0.3852 -0.0981
 1788SOL     OW 6923   1.575   3.785   0.211 -0.0721  0.3129  0.1367
 1788SOL    HW2 6924   1.661   3.782   0.254 -0.7561  0.3974  1.5603
 1788SOL    HW3 6925   1.556   3.694   0.189  0.3069  0.2747 -0.0483
 1788SOL    MW4 6926   1.584   3.773   0.213  0.4909 -0.1113 -0.0985
 1789SOL     OW 6927   1.493   5.422   2.219 -0.2331  0.0671 -0.0251
 1789SOL    HW2 6928   1.541   5.351   2.261 -0.9773  0.3385  1.3635
 1789SOL    HW3 6929   1.428   5.449   2.284 -0.2036  1.7960 -0.6411
 1789SOL    MW4 6930   1.490   5.416   2.233 -0.0834 -0.1560 -0.2229
 1790SOL     OW 6931   3.694   1.514   4.997  0.1194 -0.3402  0.1692
 1790SOL    HW2 6932   3.738   1.446   4.946 -2.5460 -1.4348 -0.8823
 1790SOL    HW3 6933   3.628   1.466   5.048 -1.3913  1.3383 -0.1086
 1790SOL    MW4 6934   3.691   1.498   4.997 -0.3105  0.2619  0.6427
 1791SOL     OW 6935   0.500   3.911   1.024  0.2961  0.2408  0.0819
 1791SOL    HW2 6936   0.458   3.930   0.940  0.8320  0.7716 -0.0715
 1791SOL    HW3 6937   0.591   3.938   1.012  0.2114  1.0412  1.0727
 1791SOL    MW4 6938   0.507   3.917   1.011  0.2590 -0.4110  0.1470
 1792SOL     OW 6939   4.059   6.179   4.420 -0.1515  0.4904  0.3801
 1792SOL    HW2 6940   4.091   6.234   4.492 -0.0874  0.7503  0.1534
 1792SOL    HW3 6941   3.991   6.125   4.460  0.1662  0.3481  0.7302
 1792SOL    MW4 6942   4.054   6.179   4.435 -0.3135  0.1632 -0.0723
 1793SOL     OW 6943   2.291   2.036   2.874  0.5481 -0.0597  0.3437
 1793SOL    HW2 6944   2.234   2.112   2.866  0.1847 -0.3797 -0.1261
 1793SOL    HW3 6945   2.370   2.070   2.915  0.0857  0.4199  0.8593
 1793SOL    MW4 6946   2.294   2.050   2.878  0.1103 -0.7188 -0.0323
 1794SOL     OW 6947   1.762   3.107   6.362 -0.2429 -0.5221  0.1581
 1794SOL    HW2 6948   1.807   3.191   6.370  0.1879 -0.6690 -0.6015
 1794SOL    HW3 6949   1.670   3.127   6.379 -0.3543  0.3728 -1.3121
 1794SOL    MW4 6950   1.756   3.120   6.365  0.0950  0.6404  0.4155
 1795SOL     OW 6951   5.619   5.614   2.039  0.9529 -0.0424  0.1336
 1795SOL    HW2 6952   5.617   5.567   2.123 -0.6053 -2.7298 -1.2958
 1795SOL    HW3 6953   5.529   5.644   2.026  1.5155  1.7444  0.0784
 1795SOL    MW4 6954   5.607   5.612   2.049 -0.2070  0.4379 -0.4691
 1796SOL     OW 6955   1.054   3.416   5.677 -0.0783  0.1590 -0.0298
 1796SOL    HW2 6956   1.148   3.423   5.662 -0.1699  0.1913 -0.6099
 1796SOL    HW3 6957   1.046   3.359   5.754  0.4217  0.3805  0.1886
 1796SOL    MW4 6958   1.065   3.409   5.685 -0.3285 -0.0415 -0.2706
 1797SOL     OW 6959   6.011   3.761   0.104  0.2829 -0.2139  0.2282
 1797SOL    HW2 6960   6.092   3.746   0.152  0.1678 -0.4057  0.3642
 1797SOL    HW3 6961   6.033   3.830   0.041  0.1294  0.9284  1.3730
 1797SOL    MW4 6962   6.024   3.768   0.102 -0.8025  0.4903  1.0248
 1798SOL     OW 6963   2.162   4.853   4.224  0.0393  0.2926  0.0540
 1798SOL    HW2 6964   2.085   4.826   4.174  0.3413  1.7841 -1.3048
 1798SOL    HW3 6965   2.207   4.771   4.245 -1.2063 -0.5027 -0.2993
 1798SOL    MW4 6966   2.158   4.839   4.220  0.1022 -0.3220  0.4731
 1799SOL     OW 6967   0.727   2.404   1.492 -0.2325  0.9210 -0.0137
 1799SOL    HW2 6968   0.723   2.496   1.515  1.6563  1.1337 -0.3891
 1799SOL    HW3 6969   0.698   2.400   1.401 -0.1843  1.1561 -0.0383
 1799SOL    MW4 6970   0.723   2.415   1.483  0.0418 -0.6573 -0.0631
 1800SOL     OW 6971   2.211   4.679   4.886  0.1915 -0.5583  0.4650
 1800SOL    HW2 6972   2.221   4.741   4.813  0.7131 -0.5079  0.5759
 1800SOL    HW3 6973   2.132   4.707   4.931  0.6587  0.3000  0.7719
 1800SOL    MW4 6974   2.202   4.690   4.882  0.3973 -0.2385 -0.4582
 1801SOL     OW 6975   5.095   1.693   4.556  0.2617  0.0021  0.3151
 1801SOL    HW2 6976   5.043   1.711   4.478 -1.0405  0.8090  1.3275
 1801SOL    HW3 6977   5.052   1.743   4.626  2.1417  0.3389  1.3037
 1801SOL    MW4 6978   5.083   1.702   4.555  0.2967  0.4252 -0.2245
 1802SOL     OW 6979   2.717   1.384   5.613 -0.8185 -0.1659 -0.3222
 1802SOL    HW2 6980   2.809   1.385   5.589 -0.1518 -2.8233  1.5765
 1802SOL    HW3 6981   2.698   1.473   5.644  1.3725  0.1740  0.1548
 1802SOL    MW4 6982   2.726   1.396   5.614 -0.2511  0.5238  0.0479
 1803SOL     OW 6983   0.231   2.552   0.247 -0.5495 -0.2910 -0.0624
 1803SOL    HW2 6984   0.294   2.624   0.253  0.2544 -0.7623 -1.8816
 1803SOL    HW3 6985   0.161   2.575   0.307  1.4280  0.1769  2.2008
 1803SOL    MW4 6986   0.230   2.564   0.256  0.3815 -0.0051  0.1327
 1804SOL     OW 6987   5.342   4.178   2.456  0.5121  0.2563  0.2641
 1804SOL    HW2 6988   5.310   4.194   2.367  3.0858  2.7098 -0.3613
 1804SOL    HW3 6989   5.373   4.087   2.454  0.1052  0.1217 -1.1848
 1804SOL    MW4 6990   5.342   4.168   2.444  0.2270 -0.5411 -0.4210
 1805SOL     OW 6991   3.990   5.589   3.514  0.8887 -0.4545 -0.0804
 1805SOL    HW2 6992   3.975   5.667   3.567  1.6570 -0.8968  0.8231
 1805SOL    HW3 6993   3.990   5.621   3.424  2.2013  0.7886  0.3226
 1805SOL    MW4 6994   3.988   5.604   3.509  0.1581  0.4622 -0.3266
 1806SOL     OW 6995   0.050   6.182   2.797 -0.0554  0.3113  0.1278
 1806SOL    HW2 6996   0.003   6.220   2.723  1.0820  1.9422  0.1966
 1806SOL    HW3 6997   0.128   6.143   2.758 -0.3787 -0.5170  0.2732
 1806SOL    MW4 6998   0.054   6.182   2.782  0.0640 -0.2376  0.2114
 1807SOL     OW 6999   1.720   4.142   0.622  0.0689  0.0983  0.5436
 1807SOL    HW2 7000   1.805   4.152   0.581  0.7170 -2.1304  1.1959
 1807SOL    HW3 7001   1.658   4.139   0.549  0.7258  0.1719 -0.0214
 1807SOL    MW4 7002   1.723   4.143   0.607  0.0252  0.1215  0.8340
 1808SOL     OW 7003   6.302   4.487   2.205 -0.0357 -0.1622 -0.2653
 1808SOL    HW2 7004   6.392   4.517   2.197  0.5735 -1.4708  1.2086
 1808SOL    HW3 7005   6.262   4.548   2.268 -0.5834  1.1631 -1.8253
 1808SOL    MW4 7006   6.308   4.499   2.213 -0.3499  0.0817  0.0445
 1809SOL     OW 7007   3.371   2.451   3.040 -0.1833  0.0273  0.3745
 1809SOL    HW2 7008   3.401   2.444   2.950  0.5261 -1.4469  0.6994
 1809SOL    HW3 7009   3.448   2.431   3.093 -0.3251  1.8186  1.3610
 1809SOL    MW4 7010   3.385   2.447   3.035 -1.2445 -0.3936 -0.1002
 1810SOL     OW 7011   4.421   3.705   2.766  0.9490  0.1370  0.3890
 1810SOL    HW2 7012   4.471   3.786   2.772  1.5290 -0.2366  0.7274
 1810SOL    HW3 7013   4.364   3.706   2.843  0.8034  0.3227  0.2787
 1810SOL    MW4 7014   4.420   3.716   2.777 -0.5703 -0.7073  0.1543
 1811SOL     OW 7015   5.332   0.297   4.119  0.0830 -0.3392 -0.5053
 1811SOL    HW2 7016   5.344   0.202   4.108 -0.4286 -0.4674 -0.0301
 1811SOL    HW3 7017   5.394   0.321   4.188  0.7384 -0.1883 -1.1375
 1811SOL    MW4 7018   5.342   0.287   4.126 -0.0157 -0.1163 -0.4016
 1812SOL     OW 7019   1.433   3.763   4.694  0.5064 -0.1165  0.0537
 1812SOL    HW2 7020   1.378   3.686   4.703  0.2746  0.1144  0.6908
 1812SOL    HW3 7021   1.371   3.837   4.697  0.7247  0.0914 -0.5206
 1812SOL    MW4 7022   1.417   3.763   4.696 -0.5258 -0.2524 -0.4231
 1813SOL     OW 7023   6.065   5.358   2.214 -0.0265 -0.3941 -0.0234
 1813SOL    HW2 7024   6.111   5.413   2.277 -0.1933 -0.3921  0.0990
 1813SOL    HW3 7025   6.113   5.276   2.213  0.5440 -0.0678 -0.6053
 1813SOL    MW4 7026   6.077   5.355   2.222  0.1067  0.1512 -0.0408
 1814SOL     OW 7027   1.568   1.213   0.724 -0.1497  0.0969  0.3518
 1814SOL    HW2 7028   1.520   1.160   0.659 -0.2463  1.4884 -0.7676
 1814SOL    HW3 7029   1.643   1.247   0.676 -0.6267  1.7655  0.7329
 1814SOL    MW4 7030   1.571   1.210   0.709 -0.1219  0.9049 -0.1855
 1815SOL     OW 7031   5.628   0.400   0.595  0.3306  0.0477  0.3574
 1815SOL    HW2 7032   5.680   0.433   0.668 -0.9853  2.2122  0.3978
 1815SOL    HW3 7033   5.552   0.457   0.592  0.0332 -0.3661 -2.3487
 1815SOL    MW4 7034   5.625   0.412   0.604 -0.6497  0.2177  0.1802
 1816SOL     OW 7035   4.484   0.037   5.649 -0.4300 -0.0872 -0.1893
 1816SOL    HW2 7036   4.492   0.047   5.744  0.2983  2.2646 -0.4302
 1816SOL    HW3 7037   4.437   0.115   5.620 -0.2435 -0.5361 -1.8185
 1816SOL    MW4 7038   4.479   0.049   5.658  0.0512  0.3652 -0.4516
 1817SOL     OW 7039   5.770   2.737   2.551  0.1160  0.2263 -0.3507
 1817SOL    HW2 7040   5.753   2.647   2.580 -1.4299  0.1399 -1.4195
 1817SOL    HW3 7041   5.731   2.742   2.464  0.9889  1.6884 -0.6944
 1817SOL    MW4 7042   5.763   2.725   2.543  0.2607  0.5633 -0.2264
 1818SOL     OW 7043   2.575   4.459   5.470  0.3093 -0.1084  0.3310
 1818SOL    HW2 7044   2.642   4.429   5.409  1.2417  2.9502 -0.3558
 1818SOL    HW3 7045   2.620   4.463   5.554  0.9923  1.6524 -0.0720
 1818SOL    MW4 7046   2.589   4.456   5.473  0.1770 -0.3532  0.2688
 1819SOL     OW 7047   5.270   3.913   0.791 -0.3574  0.1731  0.6857
 1819SOL    HW2 7048   5.194   3.902   0.848  0.3618  0.5535  1.7356
 1819SOL    HW3 7049   5.334   3.849   0.823 -0.6581 -1.0482 -0.9888
 1819SOL    MW4 7050   5.269   3.903   0.803  0.1027  0.3617 -0.0944
 1820SOL     OW 7051   3.420   1.004   0.289 -0.3303  0.0238  0.0138
 1820SOL    HW2 7052   3.340   1.040   0.252 -0.2196 -1.0784 -1.3502
 1820SOL    HW3 7053   3.405   0.910   0.294  1.3340 -0.3765 -1.4996
 1820SOL    MW4 7054   3.407   0.996   0.285  0.4888  0.2760 -0.8487
 1821SOL     OW 7055   0.692   3.251   2.942  0.3560 -0.3032  0.3379
 1821SOL    HW2 7056   0.787   3.244   2.946  0.5016  1.7458  1.6233
 1821SOL    HW3 7057   0.675   3.288   2.855  0.5386 -2.3894 -0.6511
 1821SOL    MW4 7058   0.702   3.255   2.931 -0.0459 -0.1284  0.0297
 1822SOL     OW 7059   4.972   4.686   0.208  0.3810  0.5829  0.4327
 1822SOL    HW2 7060   4.878   4.679   0.191  0.5269  2.2623 -1.3989
 1822SOL    HW3 7061   5.004   4.597   0.202 -0.5489  0.3532 -2.7130
 1822SOL    MW4 7062   4.964   4.674   0.205  0.2106 -0.1582  1.1349
 1823SOL     OW 7063   5.943   5.294   0.092 -0.7961 -0.0462 -0.7378
 1823SOL    HW2 7064   5.899   5.327   0.013  0.6494  1.5350 -0.9400
 1823SOL    HW3 7065   5.996   5.221   0.060  0.8925  1.4518 -1.6196
 1823SOL    MW4 7066   5.944   5.289   0.077 -0.2445 -0.7093 -0.7920
 1824SOL     OW 7067   4.546   3.088   3.220  0.1788  0.3588  0.1020
 1824SOL    HW2 7068   4.526   3.023   3.288  0.9858  0.5581  0.5452
 1824SOL    HW3 7069   4.634   3.119   3.242  0.8236 -0.1952 -1.5325
 1824SOL    MW4 7070   4.555   3.084   3.232 -0.1515 -0.1970 -0.1595
 1825SOL     OW 7071   3.351   2.032   4.959 -0.0094  0.2797  0.0792
 1825SOL    HW2 7072   3.424   2.026   4.897 -1.8527 -0.4890 -2.1536
 1825SOL    HW3 7073   3.281   2.073   4.909 -1.3127  0.4468  1.9685
 1825SOL    MW4 7074   3.352   2.036   4.944 -0.0960  0.1036 -0.1559
 1826SOL     OW 7075   6.153   1.848   5.332  0.0715  0.6030  0.4042
 1826SOL    HW2 7076   6.124   1.933   5.363 -0.3365  0.6911 -0.2200
 1826SOL    HW3 7077   6.073   1.798   5.319  0.1353  0.9415 -1.6121
 1826SOL    MW4 7078   6.139   1.852   5.334  0.1163 -0.3692 -0.1157
 1827SOL     OW 7079   2.832   1.270   4.225 -0.5849 -0.1619  0.3467
 1827SOL    HW2 7080   2.792   1.193   4.184 -0.5477 -0.4132  0.7787
 1827SOL    HW3 7081   2.764   1.337   4.219 -0.7881 -0.3625  0.3812
 1827SOL    MW4 7082   2.817   1.269   4.219  0.1825  0.8459  0.5610
 1828SOL     OW 7083   1.448   5.853   5.214  0.0140 -0.0185  0.3854
 1828SOL    HW2 7084   1.427   5.946   5.219  0.3527  0.0325  0.9061
 1828SOL    HW3 7085   1.534   5.850   5.171 -0.7654 -0.1990 -1.2699
 1828SOL    MW4 7086   1.457   5.865   5.209  0.2946 -0.3579  0.1217
 1829SOL     OW 7087   5.514   1.030   4.087 -0.1770 -0.2117 -0.0945
 1829SOL    HW2 7088   5.544   1.115   4.120 -0.2241  0.2643 -1.2352
 1829SOL    HW3 7089   5.589   0.995   4.039 -0.2532 -0.6799  0.1247
 1829SOL    MW4 7090   5.528   1.036   4.085  0.2020  0.0699  0.3232
 1830SOL     OW 7091   5.475   3.156   4.945 -0.4763  1.0901 -0.6572
 1830SOL    HW2 7092   5.437   3.109   4.871 -0.2118  0.9063 -0.6743
 1830SOL    HW3 7093   5.564   3.178   4.918  0.4582 -1.0105  0.4555
 1830SOL    MW4 7094   5.481   3.153   4.932 -0.1871  0.3046  0.2409
 1831SOL     OW 7095   2.605   4.625   0.686  0.1148  0.4629  0.0754
 1831SOL    HW2 7096   2.582   4.700   0.741 -1.0916  1.1694 -1.3451
 1831SOL    HW3 7097   2.523   4.598   0.645  0.7639 -0.8327 -0.4492
 1831SOL    MW4 7098   2.592   4.631   0.688  0.3299  0.3944  0.4253
 1832SOL     OW 7099   3.316   2.976   2.399  0.3570  0.3168  0.0219
 1832SOL    HW2 7100   3.309   3.069   2.418  2.5534  0.4624  0.4121
 1832SOL    HW3 7101   3.228   2.941   2.414  0.3519  1.5829  4.1083
 1832SOL    MW4 7102   3.303   2.984   2.404 -0.0787 -0.4336  0.4534
 1833SOL     OW 7103   5.478   2.229   1.148 -0.3568 -0.0692  0.0828
 1833SOL    HW2 7104   5.560   2.269   1.119 -1.3260  2.3315  0.3965
 1833SOL    HW3 7105   5.410   2.284   1.109 -1.8055 -1.3953  0.6502
 1833SOL    MW4 7106   5.480   2.241   1.139  0.1152 -0.0228  0.0081
 1834SOL     OW 7107   1.736   2.059   1.085  0.1591  0.1912 -0.0277
 1834SOL    HW2 7108   1.686   2.070   1.166 -0.7712 -2.3684 -0.1747
 1834SOL    HW3 7109   1.670   2.048   1.017  0.9387  1.6274 -1.0748
 1834SOL    MW4 7110   1.721   2.059   1.087  0.3395 -0.2482 -0.2642
 1835SOL     OW 7111   4.992   5.771   3.554  0.1098 -0.1803  0.4345
 1835SOL    HW2 7112   4.970   5.782   3.462 -1.5395 -2.2110  0.4843
 1835SOL    HW3 7113   4.917   5.808   3.601  0.4577 -0.0711  0.9132
 1835SOL    MW4 7114   4.979   5.777   3.548 -0.5694 -0.5222 -0.0278
 1836SOL     OW 7115   5.747   5.050   1.047  0.3192 -0.0309  0.5082
 1836SOL    HW2 7116   5.759   5.144   1.038  0.6426 -0.0132  1.0568
 1836SOL    HW3 7117   5.684   5.040   1.118 -1.0950 -0.1944 -0.7318
 1836SOL    MW4 7118   5.740   5.061   1.055  0.5331 -0.5162 -0.3605
 1837SOL     OW 7119   4.121   0.705   3.514 -0.2664  0.2670 -0.4302
 1837SOL    HW2 7120   4.130   0.618   3.554 -1.8825 -0.9349 -2.4361
 1837SOL    HW3 7121   4.027   0.721   3.513 -0.0080  1.8993 -0.4109
 1837SOL    MW4 7122   4.110   0.695   3.519 -0.1258  0.4703 -0.3102
 1838SOL     OW 7123   4.074   4.357   5.772 -0.0282 -0.0558 -0.5121
 1838SOL    HW2 7124   4.005   4.293   5.760 -0.1620 -0.3341  1.3693
 1838SOL    HW3 7125   4.044   4.434   5.724 -1.4840 -0.2845 -0.0235
 1838SOL    MW4 7126   4.061   4.359   5.764 -0.3836 -0.5431 -0.7948
 1839SOL     OW 7127   2.552   0.203   6.391  0.6293  0.3213  0.0369
 1839SOL    HW2 7128   2.550   0.143   6.316 -2.0093 -0.1794  0.4079
 1839SOL    HW3 7129   2.630   0.256   6.377  0.2181  0.2944 -3.0883
 1839SOL    MW4 7130   2.562   0.202   6.379  0.5970 -0.6545 -0.2099
 1840SOL     OW 7131   4.193   4.304   2.341  0.0782 -0.2780  0.4515
 1840SOL    HW2 7132   4.165   4.301   2.250 -0.1322  1.2579  0.4475
 1840SOL    HW3 7133   4.212   4.212   2.363 -0.0236 -0.6907 -1.0694
 1840SOL    MW4 7134   4.192   4.291   2.332 -0.9133 -0.3294  0.0435
 1841SOL     OW 7135   5.841   3.037   0.068 -0.6038 -0.5049  0.4216
 1841SOL    HW2 7136   5.901   2.988   0.011 -2.2863 -0.0582 -1.8493
 1841SOL    HW3 7137   5.877   3.125   0.069 -0.2599 -0.6440  0.5054
 1841SOL    MW4 7138   5.854   3.042   0.061 -0.0284 -0.0998 -0.1759
 1842SOL     OW 7139   5.107   2.976   1.543 -0.1190 -0.5061 -0.2063
 1842SOL    HW2 7140   5.170   3.042   1.571  0.8538 -1.3802 -0.3017
 1842SOL    HW3 7141   5.113   2.907   1.608 -0.1458 -1.1148 -0.8316
 1842SOL    MW4 7142   5.116   2.975   1.555  0.2602  0.2224  0.2156
 1843SOL     OW 7143   3.180   3.200   0.616  0.8264 -0.1059 -0.4580
 1843SOL    HW2 7144   3.252   3.232   0.670 -0.6292  1.5790  0.6054
 1843SOL    HW3 7145   3.176   3.261   0.542  0.7978 -0.5148 -0.8033
 1843SOL    MW4 7146   3.189   3.212   0.613  0.0650  0.1548  0.4427
 1844SOL     OW 7147   3.464   5.373   1.910  0.5127 -0.0694  0.4622
 1844SOL    HW2 7148   3.497   5.413   1.991 -0.5429 -0.3855  1.0742
 1844SOL    HW3 7149   3.542   5.355   1.858  1.3545 -1.2276  2.0443
 1844SOL    MW4 7150   3.479   5.376   1.914  0.7481 -0.1363 -0.2107
 1845SOL     OW 7151   3.895   2.620   3.062  0.5095  0.1399  0.6093
 1845SOL    HW2 7152   3.957   2.548   3.079  1.2788  0.6228 -0.0672
 1845SOL    HW3 7153   3.901   2.634   2.968  1.2172  1.8429  0.8841
 1845SOL    MW4 7154   3.904   2.612   3.052  0.7845 -0.2508 -0.2185
 1846SOL     OW 7155   0.734   0.524   3.900  0.0949 -0.3330  0.5910
 1846SOL    HW2 7156   0.641   0.508   3.914  0.3321 -1.8592  0.5802
 1846SOL    HW3 7157   0.778   0.446   3.933  1.3270  0.0731  0.0025
 1846SOL    MW4 7158   0.727   0.511   3.906 -0.2430  0.1494  0.0782
 1847SOL     OW 7159   0.824   2.976   6.105  0.1117  0.3628 -0.1493
 1847SOL    HW2 7160   0.744   2.975   6.054  1.4731  1.2200 -2.4431
 1847SOL    HW3 7161   0.866   2.892   6.086 -0.7997 -0.7079  2.1516
 1847SOL    MW4 7162   0.819   2.965   6.096  0.2684  0.5092  0.4065
 1848SOL     OW 7163   0.693   5.621   0.999  0.0321 -0.2324  0.1152
 1848SOL    HW2 7164   0.756   5.691   0.982  0.3334 -0.5290 -0.0024
 1848SOL    HW3 7165   0.651   5.646   1.081 -0.5019  0.5441 -0.3782
 1848SOL    MW4 7166   0.696   5.634   1.007  0.1753 -0.3778 -0.1935
 1849SOL     OW 7167   3.465   6.219   0.068  0.0533 -0.2005  0.3480
 1849SOL    HW2 7168   3.511   6.206   0.151  1.2018  0.4331 -0.1696
 1849SOL    HW3 7169   3.522   6.277   0.017 -0.6270 -0.5697 -0.8866
 1849SOL    MW4 7170   3.479   6.225   0.072 -0.4178  0.5780 -0.2858
 1850SOL     OW 7171   3.208   5.332   0.460  0.2048 -0.7462 -0.4143
 1850SOL    HW2 7172   3.184   5.252   0.506 -0.1461  0.1148  0.9520
 1850SOL    HW3 7173   3.224   5.396   0.529 -0.2925  0.5822 -1.4755
 1850SOL    MW4 7174   3.207   5.330   0.475 -0.3158 -0.0100  0.0365
 1851SOL     OW 7175   5.214   4.762   1.643 -0.5697  0.0491  0.0416
 1851SOL    HW2 7176   5.223   4.799   1.555  0.2069  0.4145  0.2717
 1851SOL    HW3 7177   5.203   4.668   1.629  0.6278 -0.0392 -0.4089
 1851SOL    MW4 7178   5.214   4.755   1.630 -0.2498  0.0125  0.6844
 1852SOL     OW 7179   0.447   1.256   0.340 -0.8383  0.1712 -0.4043
 1852SOL    HW2 7180   0.521   1.203   0.369 -0.0221  1.2079 -0.5231
 1852SOL    HW3 7181   0.486   1.323   0.283 -1.9270  0.4595 -0.8430
 1852SOL    MW4 7182   0.462   1.258   0.336  0.0324  0.5611  0.2962
 1853SOL     OW 7183   0.739   2.382   2.940  0.1890  0.6232  0.5017
 1853SOL    HW2 7184   0.689   2.305   2.967 -0.1765  0.0999 -1.5736
 1853SOL    HW3 7185   0.810   2.387   3.005  0.4312 -1.6515  0.5076
 1853SOL    MW4 7186   0.742   2.372   2.952  0.4713  0.3687 -0.3623
 1854SOL     OW 7187   6.372   2.647   0.017 -0.0472 -0.0866  0.2435
 1854SOL    HW2 7188   6.298   2.643  -0.043 -0.0294 -0.9006  0.2634
 1854SOL    HW3 7189   6.415   2.730  -0.004  1.6113 -1.5346 -2.8779
 1854SOL    MW4 7190   6.368   2.657   0.006 -0.0389 -0.0212  0.1003
 1855SOL     OW 7191   4.737   2.370   0.203 -0.5458 -0.1274 -0.2494
 1855SOL    HW2 7192   4.820   2.396   0.162 -2.0521 -1.0973 -4.3519
 1855SOL    HW3 7193   4.684   2.336   0.131 -4.0149 -0.9608  2.4343
 1855SOL    MW4 7194   4.741   2.369   0.188  0.1027 -0.6150 -0.5545
 1856SOL     OW 7195   2.958   0.029   2.744  0.2807 -0.0677 -0.5642
 1856SOL    HW2 7196   2.943  -0.029   2.819 -1.4762  0.7994 -0.1833
 1856SOL    HW3 7197   2.965  -0.031   2.669 -2.4404 -0.8202 -0.3238
 1856SOL    MW4 7198   2.957   0.013   2.744 -0.0430 -0.1874  1.0015
 1857SOL     OW 7199   2.274   1.113   4.694  0.8714 -0.0193  0.5453
 1857SOL    HW2 7200   2.352   1.074   4.734  2.7936  1.9750 -0.9484
 1857SOL    HW3 7201   2.307   1.154   4.613 -1.3631  2.5463  0.7787
 1857SOL    MW4 7202   2.289   1.114   4.688  0.6722  0.3234 -0.1748
 1858SOL     OW 7203   5.241   4.450   0.952 -0.0987  0.3782  0.0327
 1858SOL    HW2 7204   5.148   4.455   0.930  0.1884  1.3067 -1.0455
 1858SOL    HW3 7205   5.245   4.472   1.045 -1.0327 -0.5313  0.3073
 1858SOL    MW4 7206   5.229   4.454   0.961 -0.3468 -0.0506 -0.5816
 1859SOL     OW 7207   2.764   1.682   3.348  0.2269 -0.7926  0.1365
 1859SOL    HW2 7208   2.771   1.678   3.443  0.0703 -2.1505  0.1109
 1859SOL    HW3 7209   2.673   1.710   3.332  0.0139 -1.3340  0.3852
 1859SOL    MW4 7210   2.753   1.685   3.358 -0.0792 -0.0805 -0.1935
 1860SOL     OW 7211   4.474   2.533   0.551  0.3561 -0.0189 -0.3072
 1860SOL    HW2 7212   4.534   2.558   0.481  0.3223  2.1114  0.3268
 1860SOL    HW3 7213   4.397   2.589   0.538 -0.0577 -0.2832  0.8586
 1860SOL    MW4 7214   4.472   2.544   0.540 -0.3410  0.2536  0.0104
 1861SOL     OW 7215   4.582   0.224   0.067 -0.5866  0.1751  0.5115
 1861SOL    HW2 7216   4.553   0.215   0.158  0.2572  0.3501  0.8073
 1861SOL    HW3 7217   4.676   0.240   0.073 -0.5565  0.4016 -0.3890
 1861SOL    MW4 7218   4.591   0.225   0.080 -0.0742 -0.1660 -0.0442
 1862SOL     OW 7219   1.792   2.189   4.921 -0.1227 -0.5881  1.0675
 1862SOL    HW2 7220   1.843   2.145   4.989 -1.7667 -3.0544  0.8303
 1862SOL    HW3 7221   1.820   2.280   4.925  1.7317 -1.1650  3.2429
 1862SOL    MW4 7222   1.803   2.195   4.930  0.0974  0.4911 -0.1906
 1863SOL     OW 7223   1.723   2.748   4.295 -0.1719 -0.5590  0.7516
 1863SOL    HW2 7224   1.697   2.777   4.382 -1.7007 -0.5401  0.3187
 1863SOL    HW3 7225   1.701   2.821   4.238  0.6698 -0.6310  0.3248
 1863SOL    MW4 7226   1.716   2.761   4.299 -0.1260  0.2037  0.3332
 1864SOL     OW 7227   3.752   2.969   1.163 -0.2365 -0.2500  0.3919
 1864SOL    HW2 7228   3.701   3.003   1.237 -0.5869  0.9415 -0.3634
 1864SOL    HW3 7229   3.817   3.038   1.146  1.4298 -1.5673  1.0911
 1864SOL    MW4 7230   3.754   2.983   1.171 -0.4460 -0.1000  0.1912
 1865SOL     OW 7231   0.872   2.819   2.841  0.1646  0.7500  0.2747
 1865SOL    HW2 7232   0.839   2.865   2.918 -0.6319  2.1554 -0.8607
 1865SOL    HW3 7233   0.832   2.863   2.767  2.2615  0.5730 -1.0649
 1865SOL    MW4 7234   0.863   2.831   2.841  0.3754  0.4237  0.0936
 1866SOL     OW 7235   4.705   1.086   0.209 -0.0179 -0.7120  0.0864
 1866SOL    HW2 7236   4.734   1.125   0.126  0.0593 -0.8395  0.0530
 1866SOL    HW3 7237   4.617   1.121   0.222  0.1408 -0.3442  0.1746
 1866SOL    MW4 7238   4.697   1.096   0.200 -0.3430 -0.2567 -0.1187
 1867SOL     OW 7239   2.223   3.122   4.319 -0.2156  0.0707 -0.8709
 1867SOL    HW2 7240   2.305   3.109   4.271  0.8540 -0.7826  1.0495
 1867SOL    HW3 7241   2.205   3.215   4.311  1.6616  0.5222 -0.2770
 1867SOL    MW4 7242   2.231   3.132   4.312  0.3609  0.5867  0.1223
 1868SOL     OW 7243   5.687   3.263   0.831 -0.2391  0.2083 -0.5224
 1868SOL    HW2 7244   5.751   3.257   0.760 -0.2696 -0.8391 -0.4744
 1868SOL    HW3 7245   5.652   3.174   0.840 -0.5733  0.4241  0.4968
 1868SOL    MW4 7246   5.690   3.250   0.823 -0.4366  0.3393 -0.1655
 1869SOL     OW 7247   3.336   0.836   1.036  0.2393  0.5851 -0.1746
 1869SOL    HW2 7248   3.387   0.912   1.009  1.2583 -0.1930 -0.4926
 1869SOL    HW3 7249   3.334   0.841   1.132  2.3867 -0.2664 -0.0379
 1869SOL    MW4 7250   3.342   0.847   1.045 -0.3448 -0.3082 -0.1324
 1870SOL     OW 7251   3.783   6.058   4.479 -0.5671 -0.2026 -0.2153
 1870SOL    HW2 7252   3.805   5.972   4.516  0.7777  0.4994  0.7117
 1870SOL    HW3 7253   3.777   6.115   4.555  0.3171  0.8843 -0.9316
 1870SOL    MW4 7254   3.785   6.054   4.494  0.1142  0.5455 -0.0491
 1871SOL     OW 7255   1.780   1.649   2.427 -0.7685  0.0136 -0.2158
 1871SOL    HW2 7256   1.736   1.728   2.460 -0.8860  1.0836 -2.7131
 1871SOL    HW3 7257   1.846   1.683   2.367 -1.2910 -1.8239 -1.8956
 1871SOL    MW4 7258   1.783   1.664   2.424  0.1123 -0.0220  0.1587
 1872SOL     OW 7259   1.541   0.322   4.858 -0.1022 -0.3163  0.1786
 1872SOL    HW2 7260   1.513   0.237   4.822  0.4659 -0.3675 -0.1541
 1872SOL    HW3 7261   1.460   0.363   4.889 -0.8788  0.3502 -2.4831
 1872SOL    MW4 7262   1.526   0.316   4.857  0.0381 -0.4098 -0.2061
 1873SOL     OW 7263   5.997   2.115   4.055 -0.1700 -0.6766 -0.0825
 1873SOL    HW2 7264   5.945   2.050   4.102  1.2051 -1.6923  0.0730
 1873SOL    HW3 7265   6.066   2.139   4.117 -0.3846  0.6105 -0.3107
 1873SOL    MW4 7266   5.999   2.110   4.070  0.4125  0.3396 -0.9272
 1874SOL     OW 7267   3.197   1.759   1.316  0.0786  0.1289 -0.3692
 1874SOL    HW2 7268   3.286   1.793   1.311 -0.7422  2.3670 -1.1154
 1874SOL    HW3 7269   3.153   1.795   1.238 -2.1372  1.2315  1.2643
 1874SOL    MW4 7270   3.203   1.768   1.305  0.3793  0.1520 -0.0760
 1875SOL     OW 7271   3.114   1.933   0.582  0.3701  0.3689  0.8648
 1875SOL    HW2 7272   3.080   2.022   0.584  1.5254  1.0223 -2.1897
 1875SOL    HW3 7273   3.196   1.938   0.631  0.3118  0.9272  0.9134
 1875SOL    MW4 7274   3.121   1.946   0.589  0.0297 -0.3230 -0.6387
 1876SOL     OW 7275   4.489   6.022   4.160 -0.2317 -0.6052 -0.3335
 1876SOL    HW2 7276   4.503   6.043   4.067 -1.2837  0.2202 -0.3273
 1876SOL    HW3 7277   4.406   5.976   4.162  0.4188 -1.7999  0.0699
 1876SOL    MW4 7278   4.480   6.019   4.148 -0.1601  0.3293 -0.5361
 1877SOL     OW 7279   2.037   1.839   4.409 -0.4073 -0.4590 -0.6055
 1877SOL    HW2 7280   1.954   1.853   4.455 -0.4442 -0.9667 -0.5116
 1877SOL    HW3 7281   2.035   1.746   4.385 -0.0368 -0.3811 -0.9420
 1877SOL    MW4 7282   2.026   1.828   4.412 -0.2783  0.1633 -0.2704
 1878SOL     OW 7283   3.083   6.339   5.409  0.1596 -0.0433  0.3597
 1878SOL    HW2 7284   3.028   6.414   5.389  1.2885  1.9942  3.8996
 1878SOL    HW3 7285   3.022   6.272   5.440 -0.7126  0.0229 -1.1404
 1878SOL    MW4 7286   3.068   6.340   5.411  0.0986  0.1834  0.8237
 1879SOL     OW 7287   1.620   1.090   5.724 -0.1761 -0.2499  0.3724
 1879SOL    HW2 7288   1.629   1.025   5.654  1.3763  0.3849 -0.0671
 1879SOL    HW3 7289   1.677   1.058   5.794  0.1419  0.3301  0.3835
 1879SOL    MW4 7290   1.629   1.077   5.724 -0.1487 -0.1577  0.2249
 1880SOL     OW 7291   0.694   2.030   0.075 -0.0416 -0.3792 -0.0768
 1880SOL    HW2 7292   0.599   2.034   0.075 -0.1342 -1.8593  0.7383
 1880SOL    HW3 7293   0.721   2.093   0.007 -1.4390  2.0194  1.4768
 1880SOL    MW4 7294   0.685   2.038   0.066  0.1830  1.1276 -0.8198
 1881SOL     OW 7295   4.750   3.578   1.117  0.0808  0.3067  0.9614
 1881SOL    HW2 7296   4.747   3.534   1.201 -0.5760 -1.4706  0.0594
 1881SOL    HW3 7297   4.675   3.544   1.069  0.5620  1.1113 -0.4325
 1881SOL    MW4 7298   4.740   3.568   1.121 -0.2426  0.4813 -0.6227
 1882SOL     OW 7299   1.004   2.144   2.884 -0.0745 -0.5303  0.0744
 1882SOL    HW2 7300   0.918   2.154   2.844  0.3660  0.3855 -0.6678
 1882SOL    HW3 7301   1.043   2.231   2.881 -1.1855  0.4691  5.3664
 1882SOL    MW4 7302   0.998   2.157   2.879 -0.1670  0.2883 -0.0125
 1883SOL     OW 7303   3.412   1.000   6.249  0.0725  0.0589  0.0561
 1883SOL    HW2 7304   3.393   1.093   6.232 -1.3431 -0.2096  0.0433
 1883SOL    HW3 7305   3.327   0.962   6.270  0.4933 -1.4280 -0.8112
 1883SOL    MW4 7306   3.398   1.007   6.249  0.5316  0.1344  0.0176
 1884SOL     OW 7307   2.494   1.039   1.533  0.0006  0.3637  0.1407
 1884SOL    HW2 7308   2.562   1.061   1.469  1.3446  0.1041  1.4353
 1884SOL    HW3 7309   2.514   1.094   1.609 -0.6816 -0.4058  0.8942
 1884SOL    MW4 7310   2.505   1.049   1.535  0.0012  0.3647 -0.4627
 1885SOL     OW 7311   3.414   6.243   3.697  0.5110 -0.4009 -0.2339
 1885SOL    HW2 7312   3.466   6.299   3.755 -0.3152  0.1210  0.0244
 1885SOL    HW3 7313   3.434   6.154   3.726  1.9001 -0.2679 -0.6956
 1885SOL    MW4 7314   3.424   6.238   3.709 -0.0508 -0.6189 -0.5550
 1886SOL     OW 7315   6.349   2.004   2.863  0.1940 -0.0213 -0.5549
 1886SOL    HW2 7316   6.327   1.993   2.955 -0.1940 -1.0475 -0.7575
 1886SOL    HW3 7317   6.311   1.928   2.820  0.9691  0.0902 -1.4674
 1886SOL    MW4 7318   6.341   1.993   2.869 -0.2769 -0.0384 -0.7409
 1887SOL     OW 7319   1.095   0.498   0.517  0.1301  0.0529 -0.3100
 1887SOL    HW2 7320   1.000   0.486   0.517  0.3832 -2.7424  0.8850
 1887SOL    HW3 7321   1.130   0.416   0.483  2.1659  0.0257  1.5849
 1887SOL    MW4 7322   1.087   0.486   0.512  0.2633 -0.3357 -0.1624
 1888SOL     OW 7323   5.688   5.038   0.556  0.4971 -0.6052 -0.8902
 1888SOL    HW2 7324   5.689   5.129   0.527  0.0105 -0.9742 -2.1441
 1888SOL    HW3 7325   5.600   5.025   0.593  0.6085 -0.5277 -0.6005
 1888SOL    MW4 7326   5.676   5.048   0.557 -0.1754  0.3266 -0.7261
 1889SOL     OW 7327   4.949   4.452   5.816 -0.3557 -0.5677 -0.1107
 1889SOL    HW2 7328   5.028   4.501   5.840  0.5136 -1.6664 -0.6090
 1889SOL    HW3 7329   4.878   4.515   5.822  0.6210  0.5496 -0.0142
 1889SOL    MW4 7330   4.950   4.467   5.820  0.2604  0.1399  0.3683
 1890SOL     OW 7331   1.108   5.900   5.674 -0.4348  0.1751 -0.4242
 1890SOL    HW2 7332   1.167   5.944   5.734 -0.5954  0.6042 -0.5758
 1890SOL    HW3 7333   1.053   5.845   5.730  0.5107 -0.7051 -0.3436
 1890SOL    MW4 7334   1.108   5.899   5.689  0.0616 -0.5959 -0.2397
 1891SOL     OW 7335   2.617   2.019   4.303 -0.1506  0.6393 -0.2827
 1891SOL    HW2 7336   2.661   2.039   4.386  0.7052  0.6086 -0.7197
 1891SOL    HW3 7337   2.649   1.932   4.279  0.0200  0.8677 -0.9099
 1891SOL    MW4 7338   2.627   2.010   4.311  0.9498  0.0090 -0.2226
 1892SOL     OW 7339   5.736   2.325   0.335  0.2556  0.3391  0.3248
 1892SOL    HW2 7340   5.711   2.396   0.276  1.4045 -0.6534 -1.4238
 1892SOL    HW3 7341   5.741   2.248   0.279 -0.5391 -1.0762  2.1003
 1892SOL    MW4 7342   5.733   2.325   0.320 -0.2403  0.5167 -0.0701
 1893SOL     OW 7343   6.239   4.708   5.150  0.5484 -0.2412  0.7445
 1893SOL    HW2 7344   6.311   4.772   5.150  0.7776 -0.4229 -1.0916
 1893SOL    HW3 7345   6.282   4.623   5.150  0.3280 -0.3566  0.3561
 1893SOL    MW4 7346   6.254   4.705   5.150  0.1082 -0.4890  0.6527
 1894SOL     OW 7347   3.631   2.632   2.524 -0.6202  0.3220 -0.4339
 1894SOL    HW2 7348   3.560   2.694   2.540 -1.9283 -0.7622 -1.7437
 1894SOL    HW3 7349   3.587   2.548   2.515  0.9097 -0.4710 -0.7009
 1894SOL    MW4 7350   3.616   2.629   2.525  0.2775 -0.3047  0.5450
 1895SOL     OW 7351   3.842   0.041   6.206  1.2027  0.6321 -0.1558
 1895SOL    HW2 7352   3.916   0.006   6.157  2.0255  2.8313 -0.6346
 1895SOL    HW3 7353   3.770   0.044   6.143  1.6342  1.3812 -0.6415
 1895SOL    MW4 7354   3.843   0.037   6.191 -0.5636 -0.4742  0.3672
 1896SOL     OW 7355   0.343   5.107   0.833 -0.4201 -0.5146  0.2083
 1896SOL    HW2 7356   0.277   5.176   0.843  0.0966 -0.0627  0.5083
 1896SOL    HW3 7357   0.298   5.039   0.781 -1.7103 -1.0019  1.8726
 1896SOL    MW4 7358   0.328   5.107   0.827  0.4185  0.4016  0.4694
 1897SOL     OW 7359   6.425   1.273   0.249  0.4470  0.5865  0.2594
 1897SOL    HW2 7360   6.476   1.354   0.246  0.3754  0.6172 -0.0772
 1897SOL    HW3 7361   6.450   1.225   0.171 -0.4886  0.8732 -0.2382
 1897SOL    MW4 7362   6.435   1.278   0.239 -0.2231 -0.1722 -0.1087
 1898SOL     OW 7363   1.206   5.352   5.175 -0.1792  0.6685  0.2278
 1898SOL    HW2 7364   1.126   5.331   5.127  0.2393  1.1101 -0.7069
 1898SOL    HW3 7365   1.206   5.293   5.250 -0.8324 -0.0975 -0.3561
 1898SOL    MW4 7366   1.196   5.342   5.178  0.0830 -0.2457  0.1793
 1899SOL     OW 7367   1.119   0.445   4.073 -0.2653  0.1739  0.0488
 1899SOL    HW2 7368   1.063   0.397   4.011  2.0253 -2.1181 -0.4079
 1899SOL    HW3 7369   1.133   0.530   4.032 -0.9827 -0.3112 -1.2668
 1899SOL    MW4 7370   1.113   0.450   4.059  0.2790 -0.3055 -0.4062
 1900SOL     OW 7371   2.719   4.733   4.934 -0.0507 -0.1580  0.6916
 1900SOL    HW2 7372   2.712   4.715   4.840  1.5238  0.0921  0.4923
 1900SOL    HW3 7373   2.639   4.698   4.971 -1.7721  1.6671 -1.0105
 1900SOL    MW4 7374   2.708   4.726   4.926 -0.0255 -0.1344 -0.2902
 1901SOL     OW 7375   5.292   0.908   6.197 -0.3603 -0.3916 -0.5041
 1901SOL    HW2 7376   5.354   0.973   6.163 -1.8616  1.3387 -0.1042
 1901SOL    HW3 7377   5.311   0.904   6.291  0.0680 -0.9479 -0.6070
 1901SOL    MW4 7378   5.303   0.916   6.205  0.1588  0.7253  0.8689
 1902SOL     OW 7379   5.483   5.546   1.065  0.2102  0.0581  0.3219
 1902SOL    HW2 7380   5.439   5.616   1.016  0.3821  0.0715  0.1852
 1902SOL    HW3 7381   5.557   5.520   1.009 -0.5458 -1.0567 -0.1940
 1902SOL    MW4 7382   5.487   5.552   1.051  0.0162  0.6456 -0.4037
 1903SOL     OW 7383   1.487   3.522   3.310 -0.5713  0.3066 -0.2271
 1903SOL    HW2 7384   1.556   3.587   3.301 -0.6228  0.3285 -0.4569
 1903SOL    HW3 7385   1.488   3.473   3.228 -0.0596 -0.4513  0.2126
 1903SOL    MW4 7386   1.496   3.524   3.298 -0.5945 -0.0270 -0.1037
 1904SOL     OW 7387   5.426   3.750   4.118  0.3077  0.0386  0.1760
 1904SOL    HW2 7388   5.365   3.748   4.044  0.6072 -1.3934 -0.0709
 1904SOL    HW3 7389   5.489   3.818   4.095 -0.6091  0.8478 -0.0349
 1904SOL    MW4 7390   5.426   3.759   4.105 -1.1216 -0.0296 -0.6326
 1905SOL     OW 7391   6.086   2.381   2.421 -0.1321 -0.1034  0.2970
 1905SOL    HW2 7392   6.159   2.319   2.415 -1.3109 -1.6752  1.4880
 1905SOL    HW3 7393   6.120   2.451   2.477  0.2965 -1.1289  1.3790
 1905SOL    MW4 7394   6.100   2.382   2.428  0.3634 -0.0422 -0.8651
 1906SOL     OW 7395   3.688   5.960   5.838  0.6507  0.2370 -0.0565
 1906SOL    HW2 7396   3.602   5.943   5.876  0.5467 -0.8339 -0.7253
 1906SOL    HW3 7397   3.706   6.052   5.859 -0.2594  0.2279  0.8450
 1906SOL    MW4 7398   3.679   5.970   5.846 -0.5058  0.0190 -0.3847
 1907SOL     OW 7399   5.593   5.259   2.130  0.2441 -0.0604 -0.3489
 1907SOL    HW2 7400   5.679   5.264   2.088  0.0950  1.0080 -0.5660
 1907SOL    HW3 7401   5.590   5.335   2.188  0.2598 -1.2426  1.2874
 1907SOL    MW4 7402   5.604   5.270   2.132  0.7569 -0.5804 -0.0277
 1908SOL     OW 7403   5.648   2.897   1.878 -0.1878 -0.1927  0.3046
 1908SOL    HW2 7404   5.652   2.924   1.970 -3.2135  1.4759  0.0840
 1908SOL    HW3 7405   5.675   2.975   1.829 -1.2630 -0.1591 -0.2530
 1908SOL    MW4 7406   5.652   2.911   1.884 -0.0219 -0.6715 -0.5948
 1909SOL     OW 7407   1.894   2.381   3.004 -0.4409 -0.4758 -0.3836
 1909SOL    HW2 7408   1.933   2.380   3.091 -1.5450 -1.7035  0.1356
 1909SOL    HW3 7409   1.830   2.310   3.006 -0.4773 -0.5358 -2.2080
 1909SOL    MW4 7410   1.891   2.371   3.016 -0.2896  0.3652  0.1586
 1910SOL     OW 7411   1.990   4.522   6.208 -0.0932 -0.1888  0.4820
 1910SOL    HW2 7412   1.954   4.520   6.297  0.6884  2.2078  0.9453
 1910SOL    HW3 7413   1.915   4.507   6.151 -1.5417  2.4889  1.4808
 1910SOL    MW4 7414   1.976   4.520   6.213  0.3447 -0.3060 -0.9805
 1911SOL     OW 7415   5.397   3.754   6.306 -0.1379 -0.2874 -0.0504
 1911SOL    HW2 7416   5.492   3.763   6.310  0.0769 -1.4476 -1.6447
 1911SOL    HW3 7417   5.371   3.724   6.393  1.2072 -1.8331 -0.1422
 1911SOL    MW4 7418   5.406   3.751   6.318 -0.0271 -0.4863 -0.1078
 1912SOL     OW 7419   1.931   4.191   6.064 -0.2487  0.8847 -0.5699
 1912SOL    HW2 7420   2.014   4.224   6.028  0.2810  1.3835  1.0208
 1912SOL    HW3 7421   1.934   4.097   6.048  1.3082  0.6812  0.7187
 1912SOL    MW4 7422   1.943   4.183   6.057 -0.2017  0.5998  0.2521
 1913SOL     OW 7423   2.925   5.365   0.551  0.1926 -0.8478  0.8176
 1913SOL    HW2 7424   2.898   5.453   0.578  2.2046 -0.5175  2.0334
 1913SOL    HW3 7425   2.985   5.380   0.478 -0.1244 -1.2730  0.4694
 1913SOL    MW4 7426   2.930   5.379   0.545 -0.2149 -0.3883 -0.8151
 1914SOL     OW 7427   4.360   4.062   4.308  0.0030 -0.0430  0.1938
 1914SOL    HW2 7428   4.414   4.115   4.367  0.8643  0.4681 -1.0386
 1914SOL    HW3 7429   4.381   3.972   4.332 -1.1057  0.1223  1.9686
 1914SOL    MW4 7430   4.370   4.057   4.319 -0.3235 -0.2981  0.5329
 1915SOL     OW 7431   6.057   6.282   0.660 -0.0344  0.0338 -0.5197
 1915SOL    HW2 7432   6.138   6.272   0.610  1.1469 -0.3195  1.3469
 1915SOL    HW3 7433   6.004   6.341   0.608  1.7822  0.9721 -1.4094
 1915SOL    MW4 7434   6.061   6.288   0.647 -0.2331 -0.7653 -0.2175
 1916SOL     OW 7435   5.749   0.168   1.520  0.3936  0.1247 -0.0761
 1916SOL    HW2 7436   5.693   0.216   1.459 -0.6377  1.1209  1.5662
 1916SOL    HW3 7437   5.837   0.201   1.502 -0.0259  1.1298 -0.3769
 1916SOL    MW4 7438   5.753   0.179   1.509  0.1541  0.3512  0.0473
 1917SOL     OW 7439   2.724   4.285   2.911 -0.0080 -0.6114  0.1222
 1917SOL    HW2 7440   2.734   4.362   2.856  2.0310  0.6882  2.1224
 1917SOL    HW3 7441   2.638   4.296   2.952  0.7314  1.3184  1.2818
 1917SOL    MW4 7442   2.714   4.296   2.909  0.3506  0.0961 -0.8079
 1918SOL     OW 7443   2.570   4.929   5.544  0.1160 -0.3389  0.1659
 1918SOL    HW2 7444   2.526   4.884   5.616  0.0727 -0.9325 -0.2233
 1918SOL    HW3 7445   2.594   4.859   5.484 -1.2261  0.2820 -1.1571
 1918SOL    MW4 7446   2.567   4.913   5.546 -0.7569 -0.2017  0.4483
 1919SOL     OW 7447   3.970   1.060   4.515 -0.3002  0.2929 -0.3452
 1919SOL    HW2 7448   4.008   1.130   4.568  0.0238 -0.4678  0.4585
 1919SOL    HW3 7449   4.034   0.989   4.521 -0.5802 -0.0425 -1.2233
 1919SOL    MW4 7450   3.984   1.060   4.523  0.1132 -0.4753  0.3095
 1920SOL     OW 7451   1.792   1.208   1.172  0.2079 -0.4150 -0.2303
 1920SOL    HW2 7452   1.840   1.217   1.090  0.3740  0.2912 -0.0622
 1920SOL    HW3 7453   1.703   1.185   1.146 -0.0547  1.0319 -0.6691
 1920SOL    MW4 7454   1.787   1.206   1.158 -0.3276 -0.5175  0.0625
 1921SOL     OW 7455   4.354   3.651   3.035  0.3869  0.1771  0.5860
 1921SOL    HW2 7456   4.436   3.688   3.068 -0.4350  1.2287  1.5023
 1921SOL    HW3 7457   4.379   3.567   2.996  1.7085 -0.0926  1.9572
 1921SOL    MW4 7458   4.368   3.645   3.034  0.1805 -0.1124 -0.2371
 1922SOL     OW 7459   2.167   5.058   1.535  0.0814 -0.1529  0.3509
 1922SOL    HW2 7460   2.173   5.111   1.614 -0.1282 -0.0081  0.2685
 1922SOL    HW3 7461   2.075   5.035   1.528  0.0441  0.1158 -0.0380
 1922SOL    MW4 7462   2.156   5.062   1.545 -0.2748 -0.1505 -0.4646
 1923SOL     OW 7463   1.625   2.383   0.928 -0.1859 -0.2271 -0.0885
 1923SOL    HW2 7464   1.543   2.389   0.878  0.4265 -1.9971 -1.4233
 1923SOL    HW3 7465   1.681   2.449   0.888 -0.9373  1.0322  0.8672
 1923SOL    MW4 7466   1.621   2.392   0.916  0.7351  0.1115  0.3862
 1924SOL     OW 7467   1.526   1.996   3.200 -0.3029  0.1719  0.0031
 1924SOL    HW2 7468   1.488   1.992   3.112  0.5907 -0.8025 -0.3567
 1924SOL    HW3 7469   1.451   1.981   3.258 -0.7311 -0.2188 -0.6286
 1924SOL    MW4 7470   1.511   1.993   3.196  0.0248  0.1457 -0.2950
 1925SOL     OW 7471   0.868   6.018   0.250 -0.2465  0.7655  0.1803
 1925SOL    HW2 7472   0.790   5.963   0.245 -0.0130  0.4034  0.4917
 1925SOL    HW3 7473   0.926   5.983   0.182 -0.9601  2.0161 -1.1354
 1925SOL    MW4 7474   0.865   6.006   0.240  0.0506 -0.4083 -0.1843
 1926SOL     OW 7475   0.582   0.638   6.386  0.2606  0.3297  0.2187
 1926SOL    HW2 7476   0.537   0.612   6.467  2.9313  2.5630  2.6823
 1926SOL    HW3 7477   0.654   0.575   6.378 -0.5146 -0.4292 -1.0143
 1926SOL    MW4 7478   0.585   0.626   6.396 -0.1052 -0.0084  0.6409
 1927SOL     OW 7479   4.828   2.894   0.633 -0.5019  0.2396 -0.2183
 1927SOL    HW2 7480   4.790   2.861   0.714 -1.9095 -0.6545 -1.1982
 1927SOL    HW3 7481   4.910   2.935   0.660 -2.0154  2.0711  1.9713
 1927SOL    MW4 7482   4.834   2.895   0.647  0.6164  0.5748 -0.3477
 1928SOL     OW 7483   5.802   4.090   4.013  0.1989 -0.0262  0.1433
 1928SOL    HW2 7484   5.736   4.136   4.064 -1.2607 -1.7585 -0.0893
 1928SOL    HW3 7485   5.835   4.022   4.073 -0.7894 -1.4106 -0.8174
 1928SOL    MW4 7486   5.798   4.087   4.028  0.4532 -0.1875 -0.0492
 1929SOL     OW 7487   1.352   6.399   0.085  0.1132 -0.2973 -0.5514
 1929SOL    HW2 7488   1.297   6.324   0.108  0.8414 -0.2363  1.5896
 1929SOL    HW3 7489   1.440   6.362   0.075  0.8469  0.4274  2.3620
 1929SOL    MW4 7490   1.356   6.384   0.087 -0.4221  0.7103 -0.1488
 1930SOL     OW 7491   2.550   3.445   0.272  0.2718  0.6173  0.6808
 1930SOL    HW2 7492   2.568   3.406   0.187  0.3627 -1.0258  1.4117
 1930SOL    HW3 7493   2.455   3.440   0.282  0.4037 -0.8095  1.3848
 1930SOL    MW4 7494   2.540   3.439   0.262  0.4665 -0.9636  1.2938
 1931SOL     OW 7495   3.245   5.955   4.295 -0.2379 -0.2054  0.0807
 1931SOL    HW2 7496   3.180   6.014   4.257  1.7346  1.7495 -0.4705
 1931SOL    HW3 7497   3.225   5.955   4.389 -1.1893  0.1512 -0.1128
 1931SOL    MW4 7498   3.234   5.963   4.303 -0.3978  0.0409 -0.6115
 1932SOL     OW 7499   1.243   2.005   3.287  0.6179  0.5964 -0.3656
 1932SOL    HW2 7500   1.255   2.066   3.360  1.3719  0.8787 -0.7182
 1932SOL    HW3 7501   1.224   1.921   3.330 -2.7118  1.4671  0.1115
 1932SOL    MW4 7502   1.242   2.002   3.302 -0.0151  0.0633 -0.1956
 1933SOL     OW 7503   2.915   2.276   4.957  0.5446 -0.1174  0.5358
 1933SOL    HW2 7504   2.964   2.246   5.033  0.0593  0.5025  1.1054
 1933SOL    HW3 7505   2.840   2.323   4.993  0.2031  0.0254 -0.3235
 1933SOL    MW4 7506   2.911   2.278   4.972  0.2963 -0.2616 -0.2667
 1934SOL     OW 7507   1.786   0.950   1.790  0.7362 -0.0064  0.1596
 1934SOL    HW2 7508   1.842   1.006   1.844  3.3103  1.6414 -3.7539
 1934SOL    HW3 7509   1.724   1.011   1.749 -0.9312 -1.1492  0.8910
 1934SOL    MW4 7510   1.785   0.966   1.792 -0.0273  0.0783 -0.1718
 1935SOL     OW 7511   2.315   2.086   3.675 -0.0723  0.0925  0.1480
 1935SOL    HW2 7512   2.360   2.077   3.758  1.4420  2.1662 -0.3607
 1935SOL    HW3 7513   2.241   2.144   3.693 -1.1415 -1.3082  0.4650
 1935SOL    MW4 7514   2.311   2.093   3.688  0.1225  0.4347 -0.0888
 1936SOL     OW 7515   4.936   5.264   0.904  0.8752 -0.2569  0.3688
 1936SOL    HW2 7516   5.012   5.317   0.878  0.4605 -0.4535 -1.3713
 1936SOL    HW3 7517   4.947   5.182   0.856  0.0051 -0.6171  0.7781
 1936SOL    MW4 7518   4.948   5.260   0.894 -0.3777  0.0262 -0.4233
 1937SOL     OW 7519   3.198   6.282   6.248  0.2196  0.3907  0.4888
 1937SOL    HW2 7520   3.209   6.252   6.339  0.9333  0.0086  0.2846
 1937SOL    HW3 7521   3.287   6.300   6.218  0.0986 -0.5721 -0.4981
 1937SOL    MW4 7522   3.212   6.280   6.256 -0.0250 -0.3460 -0.0701
 1938SOL     OW 7523   4.153   0.130   2.757  0.3147  0.1678  0.0845
 1938SOL    HW2 7524   4.231   0.165   2.800  0.2233  1.2036 -0.5440
 1938SOL    HW3 7525   4.084   0.194   2.777  0.4651  1.1461 -2.2235
 1938SOL    MW4 7526   4.154   0.143   2.765  0.0465  0.2680 -0.0381
 1939SOL     OW 7527   5.762   0.804   0.761  0.3041  0.1702 -0.4647
 1939SOL    HW2 7528   5.723   0.728   0.805  2.4012 -1.2211 -0.8774
 1939SOL    HW3 7529   5.746   0.877   0.821 -0.7134 -0.8124  0.5159
 1939SOL    MW4 7530   5.754   0.804   0.775  0.4127 -0.5307 -0.1629
 1940SOL     OW 7531   0.691   1.758   3.176  0.3241 -0.1713 -0.2769
 1940SOL    HW2 7532   0.670   1.824   3.110  2.3249  0.1972 -0.6182
 1940SOL    HW3 7533   0.706   1.808   3.256  1.1121 -0.2763 -0.3543
 1940SOL    MW4 7534   0.690   1.773   3.178 -0.3122  0.3250 -0.5991
 1941SOL     OW 7535   4.137   2.874   4.951  0.3095 -0.1414  0.5009
 1941SOL    HW2 7536   4.202   2.918   4.897  0.1041 -0.3250  0.1032
 1941SOL    HW3 7537   4.131   2.928   5.030  0.3513  0.3222  0.1924
 1941SOL    MW4 7538   4.145   2.887   4.955 -0.4052 -0.1637 -0.1264
 1942SOL     OW 7539   1.464   1.213   4.200 -0.1464  0.5468  0.1398
 1942SOL    HW2 7540   1.489   1.198   4.109  0.7408  0.2056  0.4305
 1942SOL    HW3 7541   1.544   1.197   4.250 -1.2128 -1.8868  1.2397
 1942SOL    MW4 7542   1.478   1.209   4.194 -0.0737  0.4851  0.6530
 1943SOL     OW 7543   1.704   4.071   5.799  0.2505  0.3880  0.0359
 1943SOL    HW2 7544   1.787   4.080   5.845 -0.2429 -0.9708  1.2968
 1943SOL    HW3 7545   1.726   4.081   5.707  1.6974  0.6815  0.3850
 1943SOL    MW4 7546   1.718   4.073   5.793  0.1956  0.0392 -0.0990
 1944SOL     OW 7547   6.122   3.208   1.003 -0.2882 -0.2716  0.7412
 1944SOL    HW2 7548   6.171   3.259   1.067 -1.0181  2.3108 -0.5772
 1944SOL    HW3 7549   6.186   3.185   0.935 -0.3382  0.8245  0.2989
 1944SOL    MW4 7550   6.137   3.212   1.002 -0.2471 -0.4601 -1.0202
 1945SOL     OW 7551   3.531   2.645   0.025 -0.2176  0.2056 -0.2981
 1945SOL    HW2 7552   3.436   2.637   0.023 -0.2673  0.8581 -0.9759
 1945SOL    HW3 7553   3.560   2.613  -0.060  0.2563 -0.8274  0.2297
 1945SOL    MW4 7554   3.522   2.640   0.014 -0.3429 -0.0859  0.1807
 1946SOL     OW 7555   3.947   0.190   2.335  0.1450 -0.2965  0.2132
 1946SOL    HW2 7556   4.010   0.222   2.270 -1.0205  1.1283 -0.2856
 1946SOL    HW3 7557   3.875   0.155   2.283  0.4973 -1.9585  0.7799
 1946SOL    MW4 7558   3.946   0.190   2.320  0.3452 -0.3141  0.1642
 1947SOL     OW 7559   1.788   2.653   3.682  0.3895 -0.5395  0.3656
 1947SOL    HW2 7560   1.700   2.691   3.674  1.4887  2.1060 -0.0597
 1947SOL    HW3 7561   1.818   2.643   3.591  0.4573 -1.6852  0.5018
 1947SOL    MW4 7562   1.780   2.657   3.669  0.3200  0.1930 -0.0135
 1948SOL     OW 7563   4.589   2.140   6.039  0.2071 -0.0917  0.9456
 1948SOL    HW2 7564   4.683   2.132   6.023  0.0894 -1.0222  0.6642
 1948SOL    HW3 7565   4.548   2.098   5.963 -0.4122 -0.9980  1.7590
 1948SOL    MW4 7566   4.596   2.133   6.027 -0.3740  0.5614  0.0479
 1949SOL     OW 7567   4.708   0.373   3.023  0.2235 -0.3155 -0.1764
 1949SOL    HW2 7568   4.681   0.326   3.102 -0.6922 -2.6881 -1.7813
 1949SOL    HW3 7569   4.796   0.405   3.042 -0.1101 -0.5036  1.8966
 1949SOL    MW4 7570   4.716   0.371   3.036  0.2886 -0.1164  0.6083
 1950SOL     OW 7571   2.723   6.278   6.055  0.1721 -0.8087  0.0281
 1950SOL    HW2 7572   2.736   6.223   5.978  0.4749 -1.1267  0.3021
 1950SOL    HW3 7573   2.798   6.259   6.112 -0.3797 -1.0588  0.6883
 1950SOL    MW4 7574   2.735   6.269   6.053 -0.6138 -0.2231 -0.3005
 1951SOL     OW 7575   4.961   3.431   5.376 -0.6218  0.7411  0.3982
 1951SOL    HW2 7576   5.027   3.483   5.421 -1.3804  2.0268  0.0701
 1951SOL    HW3 7577   4.969   3.454   5.284 -0.3534 -0.4421  0.1041
 1951SOL    MW4 7578   4.971   3.441   5.370 -0.3470  0.1053 -0.5517
 1952SOL     OW 7579   0.121   0.210   0.029  0.2846 -0.4271 -0.3844
 1952SOL    HW2 7580   0.085   0.298   0.018 -1.4297 -0.6025  2.7006
 1952SOL    HW3 7581   0.077   0.158  -0.038 -2.4906  0.1697  0.8203
 1952SOL    MW4 7582   0.110   0.215   0.019 -0.1623 -0.2997 -0.0651
 1953SOL     OW 7583   3.092   5.749   0.224 -0.3966 -0.2761  0.3338
 1953SOL    HW2 7584   3.050   5.676   0.180 -2.9411  1.1520  0.1795
 1953SOL    HW3 7585   3.096   5.818   0.158  0.7385  0.1884  0.8483
 1953SOL    MW4 7586   3.087   5.749   0.210 -0.3026 -0.0167  0.1464
 1954SOL     OW 7587   3.510   5.527   4.182 -0.3497  0.0991 -0.4262
 1954SOL    HW2 7588   3.552   5.578   4.251 -0.6008 -1.2227  0.7537
 1954SOL    HW3 7589   3.424   5.505   4.217 -0.4416 -0.7045 -1.1083
 1954SOL    MW4 7590   3.504   5.531   4.195 -0.3131 -0.2525 -0.0135
 1955SOL     OW 7591   6.021   4.390   4.763 -0.1567  0.1768  0.2051
 1955SOL    HW2 7592   6.052   4.461   4.819 -1.5848  1.9057 -1.0815
 1955SOL    HW3 7593   6.076   4.395   4.685 -0.5264  0.1413 -0.0623
 1955SOL    MW4 7594   6.032   4.400   4.760  0.0643 -0.3447 -0.0242
 1956SOL     OW 7595   5.154   0.778   1.777  0.0741 -0.7475  0.4551
 1956SOL    HW2 7596   5.132   0.819   1.694  0.2331 -1.6088 -0.0174
 1956SOL    HW3 7597   5.197   0.847   1.827 -0.2646 -0.1480 -0.0694
 1956SOL    MW4 7598   5.157   0.792   1.773  0.0742 -0.3990 -0.4427
 1957SOL     OW 7599   1.293   1.644   0.737  0.1998 -0.1881  0.2080
 1957SOL    HW2 7600   1.344   1.725   0.730 -0.6001  0.2826 -0.4208
 1957SOL    HW3 7601   1.358   1.577   0.758  1.6141 -0.1207 -3.2056
 1957SOL    MW4 7602   1.309   1.646   0.739  0.8000  0.6995  0.2069
 1958SOL     OW 7603   0.666   4.361   3.705  0.5118 -1.0576 -0.6059
 1958SOL    HW2 7604   0.697   4.446   3.673  0.2707 -0.5122  0.5700
 1958SOL    HW3 7605   0.729   4.298   3.669  1.4533 -0.2428 -0.4454
 1958SOL    MW4 7606   0.679   4.364   3.696  0.2194  0.0871 -0.9927
 1959SOL     OW 7607   4.719   0.729   1.133  0.5417  0.0470  0.1581
 1959SOL    HW2 7608   4.723   0.685   1.048 -0.1379 -0.4087  0.3523
 1959SOL    HW3 7609   4.710   0.657   1.197  1.4296  0.3558  0.6544
 1959SOL    MW4 7610   4.718   0.714   1.131 -0.4176 -0.5987  0.3114
 1960SOL     OW 7611   3.268   0.916   5.274  0.4377  0.3165  0.0092
 1960SOL    HW2 7612   3.214   0.989   5.245  0.1981 -0.0765 -0.5566
 1960SOL    HW3 7613   3.299   0.875   5.193  0.6316 -0.1579  0.3186
 1960SOL    MW4 7614   3.265   0.920   5.260  0.1027  0.2497  0.5820
 1961SOL     OW 7615   0.584   3.977   1.677 -0.1302  0.1167  0.0595
 1961SOL    HW2 7616   0.674   4.008   1.674  0.1740 -0.5840  1.4953
 1961SOL    HW3 7617   0.569   3.954   1.768 -1.9120  0.6177 -0.0674
 1961SOL    MW4 7618   0.594   3.978   1.688 -0.2016  0.6107  0.2651
 1962SOL     OW 7619   1.632   6.162   1.591  0.0354 -0.8139 -0.4822
 1962SOL    HW2 7620   1.670   6.109   1.521  1.4767 -0.1387 -0.2536
 1962SOL    HW3 7621   1.623   6.250   1.553  0.5344 -0.5171  0.0621
 1962SOL    MW4 7622   1.636   6.167   1.577 -0.1899 -0.1733 -0.2837
 1963SOL     OW 7623   2.901   0.121   0.757 -0.2018  0.8926  0.2489
 1963SOL    HW2 7624   2.894   0.203   0.708  1.3539  0.7966 -0.1656
 1963SOL    HW3 7625   2.884   0.053   0.691  0.4671  0.8141  0.1574
 1963SOL    MW4 7626   2.898   0.123   0.742 -1.0670  0.2057  0.1564
 1964SOL     OW 7627   0.704   3.366   2.529  1.1371  0.8128 -0.7249
 1964SOL    HW2 7628   0.766   3.417   2.581  1.0176  0.8944 -0.6610
 1964SOL    HW3 7629   0.635   3.342   2.591  1.2118  0.5387 -0.7469
 1964SOL    MW4 7630   0.703   3.370   2.544  0.0963 -0.7676  0.4515
 1965SOL     OW 7631   0.356   1.545   4.921  0.4539  0.5433 -0.7120
 1965SOL    HW2 7632   0.305   1.528   5.000 -0.2817  0.8009 -1.1221
 1965SOL    HW3 7633   0.434   1.592   4.952  0.7268 -0.3643 -0.0189
 1965SOL    MW4 7634   0.359   1.549   4.935 -0.1095 -0.2541  0.0258
 1966SOL     OW 7635   5.686   3.532   6.178  0.2559 -0.5217 -0.0828
 1966SOL    HW2 7636   5.717   3.576   6.099  1.4207 -1.7635 -0.3590
 1966SOL    HW3 7637   5.733   3.574   6.249  1.3310 -1.2491 -0.3405
 1966SOL    MW4 7638   5.696   3.543   6.177  0.2038 -0.6898  0.4424
 1967SOL     OW 7639   4.668   6.290   3.500  0.1636 -0.6548  0.4583
 1967SOL    HW2 7640   4.712   6.275   3.584 -0.9180  2.3937  1.7042
 1967SOL    HW3 7641   4.579   6.257   3.513 -0.3601  0.8770  1.0100
 1967SOL    MW4 7642   4.662   6.284   3.513 -0.3651  0.2429  0.0602
 1968SOL     OW 7643   2.915   4.524   1.937  0.1270 -0.3184 -0.0561
 1968SOL    HW2 7644   2.876   4.471   2.006  0.5757 -0.3042  0.2061
 1968SOL    HW3 7645   2.930   4.462   1.865  0.8191 -0.5904  0.3151
 1968SOL    MW4 7646   2.912   4.509   1.936  0.4157  0.3438 -0.2267
 1969SOL     OW 7647   1.219   1.529   4.050 -0.2784 -0.1298  0.3576
 1969SOL    HW2 7648   1.247   1.545   4.140  0.4745  1.8313 -0.1904
 1969SOL    HW3 7649   1.300   1.523   3.999 -0.7202  0.5263 -0.4519
 1969SOL    MW4 7650   1.233   1.530   4.055  0.3408 -0.0345  0.0364
 1970SOL     OW 7651   1.806   5.959   0.194 -0.1489 -0.3517  0.5495
 1970SOL    HW2 7652   1.830   5.869   0.170 -2.3894 -0.6053 -1.0416
 1970SOL    HW3 7653   1.789   5.956   0.288  0.3353 -1.4443  0.6139
 1970SOL    MW4 7654   1.807   5.947   0.203 -0.0591 -0.6055 -0.1704
 1971SOL     OW 7655   4.682   6.059   1.900  0.2227  0.2710 -0.1861
 1971SOL    HW2 7656   4.712   6.087   1.814 -1.5096  0.8989 -0.6404
 1971SOL    HW3 7657   4.592   6.029   1.885  0.3401 -0.8901  1.1785
 1971SOL    MW4 7658   4.674   6.059   1.887  0.4469 -0.2318 -0.2693
 1972SOL     OW 7659   2.125   0.964   0.188  0.1693  0.4333 -0.0024
 1972SOL    HW2 7660   2.133   0.911   0.109 -0.6162  1.2182 -0.6296
 1972SOL    HW3 7661   2.063   0.915   0.243  0.7979 -0.1649  0.1786
 1972SOL    MW4 7662   2.118   0.951   0.185  0.2319  0.2995  0.5411
 1973SOL     OW 7663   3.608   5.691   4.651 -0.0133 -0.1288 -0.5308
 1973SOL    HW2 7664   3.578   5.600   4.657 -0.8760  0.2039  0.4050
 1973SOL    HW3 7665   3.661   5.704   4.729  0.0173  0.2060 -0.6069
 1973SOL    MW4 7666   3.611   5.681   4.662  0.0806  0.7522  0.5848
 1974SOL     OW 7667   0.324   4.180   0.649  0.2831 -0.2907 -0.1082
 1974SOL    HW2 7668   0.245   4.170   0.701 -0.4854  0.4037 -1.0913
 1974SOL    HW3 7669   0.395   4.151   0.706 -0.8422 -2.7875  0.1612
 1974SOL    MW4 7670   0.323   4.175   0.663 -0.0725 -0.5543 -0.2838
 1975SOL     OW 7671   0.529   5.159   5.086  0.2535  0.0881 -0.4448
 1975SOL    HW2 7672   0.445   5.115   5.071 -0.5200  1.0901  0.7226
 1975SOL    HW3 7673   0.543   5.211   5.007  0.7321 -1.4734 -1.4510
 1975SOL    MW4 7674   0.520   5.160   5.074  0.1674  0.0160 -0.7004
 1976SOL     OW 7675   6.114   2.431   3.098  0.0185  0.2228 -0.7050
 1976SOL    HW2 7676   6.032   2.399   3.136  0.7797  0.3620  1.1294
 1976SOL    HW3 7677   6.090   2.515   3.058 -1.2905 -1.0157 -2.6937
 1976SOL    MW4 7678   6.100   2.438   3.097 -0.0968  0.1549  0.3255
 1977SOL     OW 7679   3.767   1.229   5.533 -0.0432 -0.2894  0.1001
 1977SOL    HW2 7680   3.783   1.141   5.501 -1.1049 -2.0451  3.8419
 1977SOL    HW3 7681   3.728   1.217   5.620  0.0796  3.8758  0.9719
 1977SOL    MW4 7682   3.764   1.216   5.540  0.0549  0.4022 -0.1720
 1978SOL     OW 7683   3.788   1.748   0.320  0.4630  0.3822  0.0115
 1978SOL    HW2 7684   3.829   1.708   0.244 -1.1705 -0.1423 -0.6314
 1978SOL    HW3 7685   3.710   1.791   0.286  0.2001  0.9643  1.2599
 1978SOL    MW4 7686   3.783   1.748   0.306  0.4709  0.1190  0.2853
 1979SOL     OW 7687   3.094   6.314   3.770  0.0870  0.1276 -0.4445
 1979SOL    HW2 7688   3.087   6.357   3.855 -0.7048  0.7862 -0.8375
 1979SOL    HW3 7689   3.183   6.278   3.769  1.4632  3.2064 -0.7515
 1979SOL    MW4 7690   3.105   6.315   3.781  0.0057 -0.3127  0.1767
 1980SOL     OW 7691   0.580   3.327   4.694 -0.1558  0.0406  0.4927
 1980SOL    HW2 7692   0.675   3.332   4.690 -0.1680  0.5386  0.7022
 1980SOL    HW3 7693   0.556   3.385   4.767 -0.6215 -0.0052  0.3788
 1980SOL    MW4 7694   0.589   3.336   4.703  0.0706  0.4885  0.2607
 1981SOL     OW 7695   3.762   4.292   3.212 -0.1644 -0.2567 -0.0701
 1981SOL    HW2 7696   3.842   4.258   3.253 -1.0271 -0.8519  1.1765
 1981SOL    HW3 7697   3.751   4.239   3.133  0.5085 -0.3769 -0.0869
 1981SOL    MW4 7698   3.771   4.281   3.207 -0.4769  0.0569 -0.3291
 1982SOL     OW 7699   2.145   1.855   3.058  0.6058  0.5034 -0.5172
 1982SOL    HW2 7700   2.207   1.790   3.093  0.5846  1.4219  1.4075
 1982SOL    HW3 7701   2.193   1.898   2.987  0.7308 -1.3565 -1.6084
 1982SOL    MW4 7702   2.160   1.852   3.053  0.2555 -0.2252 -0.0627
 1983SOL     OW 7703   2.343   6.127   4.031 -0.3331  0.1822 -0.5971
 1983SOL    HW2 7704   2.256   6.088   4.045  0.7516 -2.1533  0.2921
 1983SOL    HW3 7705   2.366   6.103   3.942  0.1204 -0.8819 -0.2188
 1983SOL    MW4 7706   2.335   6.119   4.021 -0.4087  0.3315 -0.6063
 1984SOL     OW 7707   1.489   3.364   3.060 -0.4186 -0.9389  0.0245
 1984SOL    HW2 7708   1.407   3.323   3.032 -0.1642 -1.3559 -0.1239
 1984SOL    HW3 7709   1.493   3.447   3.012 -0.3945 -1.2626 -0.5419
 1984SOL    MW4 7710   1.479   3.370   3.050 -0.2504 -0.1712  0.1334
 1985SOL     OW 7711   0.075   0.317   0.448  0.2050 -0.1301  0.5784
 1985SOL    HW2 7712   0.012   0.374   0.492  1.7461  0.4555  2.1811
 1985SOL    HW3 7713   0.151   0.317   0.507  2.1768  0.1783 -1.8060
 1985SOL    MW4 7714   0.077   0.325   0.462 -0.0428  0.0739  0.0324
 1986SOL     OW 7715   0.784   5.948   2.270  0.5046  0.3584 -0.3936
 1986SOL    HW2 7716   0.834   6.000   2.333  2.1580 -0.6378 -0.8169
 1986SOL    HW3 7717   0.843   5.877   2.246 -1.2171 -0.9859 -0.8056
 1986SOL    MW4 7718   0.798   5.946   2.275 -0.5429  0.2315 -0.0159
 1987SOL     OW 7719   5.456   2.637   3.503 -0.7096  0.5233 -0.1619
 1987SOL    HW2 7720   5.482   2.708   3.445 -1.6166  1.3316  0.4082
 1987SOL    HW3 7721   5.361   2.644   3.510 -0.8438 -0.8859 -0.2700
 1987SOL    MW4 7722   5.447   2.647   3.496  0.2171  0.4670  0.6590
 1988SOL     OW 7723   2.075   4.773   2.221  0.0893 -0.1661 -0.4134
 1988SOL    HW2 7724   2.090   4.757   2.128 -2.0786 -0.2191 -0.7904
 1988SOL    HW3 7725   2.157   4.813   2.251  0.3067  1.2839 -2.6939
 1988SOL    MW4 7726   2.088   4.776   2.213  0.1522  0.5649  0.0617
 1989SOL     OW 7727   6.416   0.848   4.629  0.3458  0.1312 -0.0412
 1989SOL    HW2 7728   6.403   0.927   4.576  2.3994 -0.2799 -1.2460
 1989SOL    HW3 7729   6.342   0.792   4.608 -0.7795  1.4310  0.3169
 1989SOL    MW4 7730   6.405   0.851   4.619 -0.2372  1.0118  0.1834
 1990SOL     OW 7731   4.985   3.233   2.799  0.0608 -0.2203 -0.3887
 1990SOL    HW2 7732   5.021   3.311   2.840  1.8631 -1.3077  0.2355
 1990SOL    HW3 7733   4.980   3.255   2.706  0.8411  0.5511 -0.2600
 1990SOL    MW4 7734   4.989   3.246   2.792 -0.0860 -0.8844 -0.2449
 1991SOL     OW 7735   1.992   1.166   4.410 -0.2587 -0.0338 -0.3048
 1991SOL    HW2 7736   1.911   1.132   4.373  0.8317 -1.2890 -1.6856
 1991SOL    HW3 7737   2.048   1.182   4.334  0.6964  1.1292  0.5928
 1991SOL    MW4 7738   1.989   1.164   4.395  0.2622 -0.8238 -0.2875
 1992SOL     OW 7739   3.152   3.352   2.922 -0.0888  1.2404 -0.0543
 1992SOL    HW2 7740   3.084   3.288   2.940  0.7719 -0.6374 -2.8148
 1992SOL    HW3 7741   3.117   3.405   2.850  1.3498  0.0764 -1.6953
 1992SOL    MW4 7742   3.138   3.351   2.915 -0.3123 -0.3857  0.6045
 1993SOL     OW 7743   0.457   6.354   3.228  0.4103 -0.6144  0.1924
 1993SOL    HW2 7744   0.436   6.421   3.163  2.5397 -1.1605 -1.1602
 1993SOL    HW3 7745   0.483   6.277   3.176  1.5753 -1.2671  1.6635
 1993SOL    MW4 7746   0.458   6.353   3.212  0.4044  0.0173  0.4332
 1994SOL     OW 7747   3.858   3.850   6.322  0.1364 -0.9525 -0.0563
 1994SOL    HW2 7748   3.831   3.764   6.290  1.8943 -2.1695  1.5057
 1994SOL    HW3 7749   3.850   3.844   6.417  0.9662  0.3594  0.1276
 1994SOL    MW4 7750   3.853   3.838   6.330  0.0539 -0.0988 -0.6298
 1995SOL     OW 7751   1.677   0.998   2.657 -0.1306 -0.1184 -0.5399
 1995SOL    HW2 7752   1.610   1.066   2.655 -0.7064 -0.6428  0.1833
 1995SOL    HW3 7753   1.693   0.982   2.750  0.5584 -0.4237 -0.7033
 1995SOL    MW4 7754   1.670   1.005   2.669  0.0130  0.2829 -0.2962
 1996SOL     OW 7755   0.934   3.052   5.251  0.6555  0.0298  0.1836
 1996SOL    HW2 7756   0.895   3.070   5.166 -1.8013 -0.6722  1.0680
 1996SOL    HW3 7757   0.920   3.133   5.301  0.7455 -0.0769  0.3815
 1996SOL    MW4 7758   0.927   3.065   5.246 -0.2890  0.1665 -0.5647
 1997SOL     OW 7759   2.556   6.253   4.706  0.6285 -0.2555  0.1073
 1997SOL    HW2 7760   2.585   6.199   4.633  0.7782  0.7543 -0.6037
 1997SOL    HW3 7761   2.468   6.282   4.682  1.0244  0.8188 -0.1223
 1997SOL    MW4 7762   2.549   6.250   4.693 -0.2696  0.4713  0.4803
 1998SOL     OW 7763   2.595   0.798   1.664 -0.0363 -0.6378 -0.1486
 1998SOL    HW2 7764   2.684   0.775   1.636  0.2362  0.7262 -0.4875
 1998SOL    HW3 7765   2.575   0.878   1.615 -1.0602 -0.3666  0.6814
 1998SOL    MW4 7766   2.604   0.806   1.654  0.0682 -0.0749  0.5810
 1999SOL     OW 7767   4.324   2.603   1.577 -0.2335 -0.1093 -0.2938
 1999SOL    HW2 7768   4.341   2.527   1.522 -0.7059 -1.3476  1.2301
 1999SOL    HW3 7769   4.239   2.636   1.545 -0.7583 -1.1259  0.0011
 1999SOL    MW4 7770   4.315   2.598   1.565  0.6826 -0.2847  0.0375
 2000SOL     OW 7771   0.322   4.110   1.312 -0.2057  0.0147  0.5217
 2000SOL    HW2 7772   0.290   4.022   1.291 -2.6149  1.3542 -2.0128
 2000SOL    HW3 7773   0.398   4.121   1.254 -1.5008  0.4873 -1.1575
 2000SOL    MW4 7774   0.328   4.100   1.301  0.1049  0.2904 -0.4093
 2001SOL     OW 7775   1.321   5.492   4.482  0.2209  0.4470 -0.4086
 2001SOL    HW2 7776   1.313   5.443   4.400  3.1251  1.3803 -1.3581
 2001SOL    HW3 7777   1.288   5.579   4.461  0.8164  0.6392 -0.5831
 2001SOL    MW4 7778   1.316   5.497   4.468 -0.2174 -0.2619  0.1605
 2002SOL     OW 7779   0.908   0.923   0.978  0.2044  0.1473 -0.5677
 2002SOL    HW2 7780   0.875   1.012   0.975  1.7898  0.8413  1.0683
 2002SOL    HW3 7781   0.984   0.927   1.037  2.0578 -1.6908 -2.6193
 2002SOL    MW4 7782   0.914   0.935   0.985  0.0829  0.1648 -0.7478
 2003SOL     OW 7783   4.110   5.361   1.607 -0.4784  0.0055  0.5681
 2003SOL    HW2 7784   4.197   5.373   1.569 -1.0943  0.8069 -0.6901
 2003SOL    HW3 7785   4.126   5.339   1.698  1.0574 -0.5879  0.1884
 2003SOL    MW4 7786   4.123   5.360   1.614  0.3816 -0.4935 -0.2508
 2004SOL     OW 7787   3.243   3.751   3.207 -0.7070 -0.0479 -0.0650
 2004SOL    HW2 7788   3.234   3.805   3.129  3.1526  0.6087 -0.2032
 2004SOL    HW3 7789   3.270   3.811   3.276 -1.1064 -1.0991  1.0550
 2004SOL    MW4 7790   3.245   3.766   3.206  0.1412 -0.0899  0.0140
 2005SOL     OW 7791   1.083   5.508   2.640  0.5270 -0.3645  0.2865
 2005SOL    HW2 7792   1.157   5.488   2.583 -1.4992  0.3788 -2.8577
 2005SOL    HW3 7793   1.099   5.598   2.669  0.8437 -0.1873 -0.4158
 2005SOL    MW4 7794   1.095   5.517   2.637  0.2756  0.2616 -0.0417
 2006SOL     OW 7795   3.153   4.127   1.028 -0.4216 -0.0318  0.0630
 2006SOL    HW2 7796   3.091   4.078   0.973 -0.7507 -0.2356  0.6152
 2006SOL    HW3 7797   3.098   4.190   1.075  0.1313  1.8135 -1.6052
 2006SOL    MW4 7798   3.137   4.129   1.027 -0.1146 -0.1171  0.5563
 2007SOL     OW 7799   0.582   3.448   0.679  0.8071 -0.5841  0.3471
 2007SOL    HW2 7800   0.661   3.463   0.730 -0.2407 -0.0991  1.9188
 2007SOL    HW3 7801   0.577   3.522   0.619  1.6075 -0.6954  0.1359
 2007SOL    MW4 7802   0.592   3.459   0.678 -0.3222  0.3588  0.3370
 2008SOL     OW 7803   3.790   0.471   2.123 -0.4314 -0.0342  0.6012
 2008SOL    HW2 7804   3.727   0.526   2.075 -0.4793  2.0252  2.7905
 2008SOL    HW3 7805   3.746   0.387   2.132 -1.3733  0.2545 -0.8857
 2008SOL    MW4 7806   3.776   0.467   2.118  0.0359  0.2687  0.4832
 2009SOL     OW 7807   5.186   2.129   5.449  0.4522  0.5771  0.3225
 2009SOL    HW2 7808   5.147   2.215   5.464  0.3918  0.5724  0.1879
 2009SOL    HW3 7809   5.114   2.075   5.417  0.3261  0.2912  1.0532
 2009SOL    MW4 7810   5.171   2.133   5.447 -0.4684  0.2390  0.3526
 2010SOL     OW 7811   2.356   4.618   2.378  0.0620  0.0466  1.3000
 2010SOL    HW2 7812   2.333   4.706   2.409 -0.8410  0.2416  0.1459
 2010SOL    HW3 7813   2.418   4.634   2.307 -1.4835 -0.0953 -0.1619
 2010SOL    MW4 7814   2.361   4.632   2.373 -0.6508 -0.5981  0.3349
 2011SOL     OW 7815   4.786   4.637   3.234  0.1828  0.0276 -0.1660
 2011SOL    HW2 7816   4.696   4.668   3.225  0.3065  0.9309  1.4480
 2011SOL    HW3 7817   4.801   4.583   3.156 -2.2837 -1.4702  0.2910
 2011SOL    MW4 7818   4.776   4.634   3.223  0.2870 -0.4530 -0.3913
 2012SOL     OW 7819   3.383   3.995   0.893 -0.0160  0.2930  0.3588
 2012SOL    HW2 7820   3.306   4.046   0.870 -0.6639  0.5325  2.7604
 2012SOL    HW3 7821   3.349   3.910   0.919  0.8499 -0.6372 -1.3709
 2012SOL    MW4 7822   3.369   3.991   0.894 -0.4391  0.3895 -0.1618
 2013SOL     OW 7823   3.103   4.997   4.364  0.1488 -0.2885  0.2880
 2013SOL    HW2 7824   3.188   4.965   4.393 -0.1344  0.9334  2.7656
 2013SOL    HW3 7825   3.040   4.934   4.397 -0.1203  0.7165  1.8240
 2013SOL    MW4 7826   3.106   4.985   4.372  0.2131 -0.1275  0.3361
 2014SOL     OW 7827   5.437   5.400   6.186 -0.4552  0.7529  0.2154
 2014SOL    HW2 7828   5.377   5.410   6.112  0.8776  1.1686 -0.8494
 2014SOL    HW3 7829   5.502   5.470   6.174  1.1807 -0.6806  0.3872
 2014SOL    MW4 7830   5.438   5.411   6.175 -0.5796 -0.3779  0.1897
 2015SOL     OW 7831   4.492   4.194   2.779  0.5967  0.5236  0.4002
 2015SOL    HW2 7832   4.429   4.217   2.847 -0.1118 -0.0958 -0.0297
 2015SOL    HW3 7833   4.480   4.262   2.712  0.2321  0.2923  0.2269
 2015SOL    MW4 7834   4.482   4.206   2.779  0.4933 -1.3445 -0.7174
 2016SOL     OW 7835   1.687   1.206   2.156 -0.1779  0.2030  0.3361
 2016SOL    HW2 7836   1.688   1.301   2.154  0.2522  0.1916 -0.6405
 2016SOL    HW3 7837   1.775   1.180   2.125 -0.2347 -0.4998  0.7454
 2016SOL    MW4 7838   1.699   1.215   2.151  0.1694  0.7241  0.8581
 2017SOL     OW 7839   4.825   4.665   0.722 -0.1966  0.0862  0.3080
 2017SOL    HW2 7840   4.783   4.692   0.803 -1.6995  0.2731 -0.4929
 2017SOL    HW3 7841   4.908   4.713   0.720 -0.7010  1.0180  1.1454
 2017SOL    MW4 7842   4.831   4.674   0.732 -0.1071 -0.2146  0.2948
 2018SOL     OW 7843   1.155   3.431   4.619 -0.2013  0.5412  0.0007
 2018SOL    HW2 7844   1.062   3.420   4.641  0.0838  0.0359  1.0309
 2018SOL    HW3 7845   1.157   3.508   4.563 -1.1470  1.1941  0.8117
 2018SOL    MW4 7846   1.143   3.440   4.615 -0.4224 -0.4370 -0.2927
 2019SOL     OW 7847   2.214   5.438   3.993 -0.0776  0.0089 -0.2094
 2019SOL    HW2 7848   2.307   5.420   4.009  0.2174  0.0730 -1.7493
 2019SOL    HW3 7849   2.202   5.528   4.025  0.6428  0.3681 -0.8943
 2019SOL    MW4 7850   2.225   5.448   4.000  0.2834 -0.0028  0.4119
 2020SOL     OW 7851   4.100   0.110   5.574  0.0563  0.2202  0.5495
 2020SOL    HW2 7852   4.130   0.031   5.529 -1.6105  0.4521 -1.1115
 2020SOL    HW3 7853   4.173   0.171   5.568  0.5324 -0.4107 -0.1873
 2020SOL    MW4 7854   4.113   0.108   5.568  0.4874  0.7660 -0.3461
 2021SOL     OW 7855   2.441   5.086   0.257  0.0924 -0.4055  0.1997
 2021SOL    HW2 7856   2.491   5.167   0.248  0.5595 -0.6475  0.5304
 2021SOL    HW3 7857   2.359   5.102   0.211  0.2508  0.1960  0.1237
 2021SOL    MW4 7858   2.437   5.098   0.250  0.1524  0.2967 -0.3630
 2022SOL     OW 7859   4.047   3.076   0.700 -0.1227 -0.3070  0.7122
 2022SOL    HW2 7860   4.022   3.040   0.615  1.6485  0.1713 -0.0581
 2022SOL    HW3 7861   4.141   3.064   0.704 -0.2228 -0.6474  2.7939
 2022SOL    MW4 7862   4.056   3.070   0.689  0.7357  0.1148 -0.0664
 2023SOL     OW 7863   5.444   0.076   2.837  0.5235 -0.1331  0.4968
 2023SOL    HW2 7864   5.456   0.101   2.745 -0.1755  2.7630  1.0671
 2023SOL    HW3 7865   5.480  -0.012   2.843  1.5209 -0.0372 -2.3239
 2023SOL    MW4 7866   5.450   0.068   2.826  0.1403 -0.3894  0.8146
 2024SOL     OW 7867   4.452   5.422   5.749  0.3592 -0.4977  0.2030
 2024SOL    HW2 7868   4.429   5.430   5.657 -1.0233 -0.4238  0.5201
 2024SOL    HW3 7869   4.497   5.503   5.771 -1.5556  0.6423  0.1721
 2024SOL    MW4 7870   4.455   5.434   5.740  0.0303  0.2867 -0.3294
 2025SOL     OW 7871   0.913   0.054   6.328 -0.0505 -0.4097 -0.4544
 2025SOL    HW2 7872   0.893   0.043   6.235  1.8393  3.3843 -1.5277
 2025SOL    HW3 7873   0.864   0.132   6.353  1.6766  0.3072  0.8835
 2025SOL    MW4 7874   0.904   0.063   6.319 -0.0915  0.4310 -0.4054
 2026SOL     OW 7875   5.568   4.586   5.418  0.2660  0.1576 -0.0520
 2026SOL    HW2 7876   5.622   4.547   5.486  0.1838  0.1084 -0.0141
 2026SOL    HW3 7877   5.524   4.511   5.377  1.0116  0.1010 -0.7639
 2026SOL    MW4 7878   5.569   4.571   5.422 -0.3282  0.4672 -0.7944
 2027SOL     OW 7879   0.238   1.444   0.201 -0.2226  0.4747 -0.2475
 2027SOL    HW2 7880   0.239   1.514   0.136  1.2273  0.4163 -0.3135
 2027SOL    HW3 7881   0.272   1.367   0.156 -1.5975 -0.2354 -0.1126
 2027SOL    MW4 7882   0.243   1.443   0.187  0.0924 -0.2335  0.3183
 2028SOL     OW 7883   5.093   3.928   5.970 -0.2332  0.2690 -0.2717
 2028SOL    HW2 7884   5.141   3.865   6.023 -1.9569 -0.8050  0.0971
 2028SOL    HW3 7885   5.001   3.913   5.991 -0.9079  0.7785 -2.5098
 2028SOL    MW4 7886   5.087   3.918   5.980  0.2034 -0.0444 -0.9228
 2029SOL     OW 7887   4.780   2.474   0.653  0.0958 -0.1126 -0.0138
 2029SOL    HW2 7888   4.853   2.523   0.615  2.0738 -1.3929  1.8410
 2029SOL    HW3 7889   4.718   2.542   0.681  0.6218  1.0359 -1.4880
 2029SOL    MW4 7890   4.782   2.490   0.652  0.4667 -0.3437  0.2344
 2030SOL     OW 7891   6.014   3.191   4.132 -0.0645  0.3562 -0.5604
 2030SOL    HW2 7892   6.104   3.218   4.117  0.5274 -0.4932  1.1601
 2030SOL    HW3 7893   5.961   3.266   4.105  1.2655  1.6222  0.2251
 2030SOL    MW4 7894   6.019   3.204   4.126  0.4111  0.8183  0.7462
 2031SOL     OW 7895   5.379   2.716   1.167  0.1537  0.2130 -0.0598
 2031SOL    HW2 7896   5.419   2.794   1.127  4.3707 -0.3388  2.4635
 2031SOL    HW3 7897   5.337   2.749   1.246 -0.5129  0.2331 -0.4176
 2031SOL    MW4 7898   5.379   2.731   1.172 -0.0769 -0.0086 -0.4910
 2032SOL     OW 7899   2.100   4.844   0.281 -0.5716 -0.4290  0.0323
 2032SOL    HW2 7900   2.140   4.853   0.367 -1.4900  1.3948  0.3289
 2032SOL    HW3 7901   2.006   4.849   0.298 -0.7455  1.3867 -1.1458
 2032SOL    MW4 7902   2.093   4.846   0.294  0.1519  0.1616  0.0221
 2033SOL     OW 7903   0.041   2.205   3.931 -0.0457 -0.1488 -0.7128
 2033SOL    HW2 7904  -0.026   2.270   3.954  1.8657  1.6911  0.0024
 2033SOL    HW3 7905   0.041   2.204   3.835 -1.2528 -0.3748 -0.7229
 2033SOL    MW4 7906   0.032   2.214   3.921  0.8953 -0.2262  0.3250
 2034SOL     OW 7907   6.098   2.196   1.576  0.2512  0.2374  0.0755
 2034SOL    HW2 7908   6.054   2.277   1.602  0.7221  0.5201 -0.0031
 2034SOL    HW3 7909   6.043   2.126   1.613  0.9253  0.6066  1.8678
 2034SOL    MW4 7910   6.085   2.198   1.584 -0.1507 -0.3024 -0.3369
 2035SOL     OW 7911   3.614   2.630   1.116 -0.5487 -0.7769  0.2568
 2035SOL    HW2 7912   3.690   2.638   1.172 -0.1456 -1.0249 -0.2511
 2035SOL    HW3 7913   3.568   2.552   1.148 -0.9911 -0.2182  1.0296
 2035SOL    MW4 7914   3.618   2.621   1.128  0.6169  0.1325 -0.1415
 2036SOL     OW 7915   1.253   1.060   5.709  0.1597  0.4250 -0.3775
 2036SOL    HW2 7916   1.331   1.016   5.675  0.1569  1.3371 -1.5959
 2036SOL    HW3 7917   1.286   1.114   5.781  0.4831 -0.0087 -0.1960
 2036SOL    MW4 7918   1.268   1.061   5.714  0.4071 -0.4500  0.0827
 2037SOL     OW 7919   3.694   6.159   6.123 -0.1756  0.3685  0.4351
 2037SOL    HW2 7920   3.714   6.183   6.213 -0.3203  0.2253  0.5078
 2037SOL    HW3 7921   3.644   6.077   6.131  0.3787  0.0043  0.1908
 2037SOL    MW4 7922   3.690   6.151   6.136 -0.2888  1.0364  0.4565
 2038SOL     OW 7923   4.854   5.199   5.969 -0.2856  0.3192 -0.2958
 2038SOL    HW2 7924   4.766   5.161   5.971  0.0742 -0.5248  0.4798
 2038SOL    HW3 7925   4.852   5.261   5.896 -1.3424 -0.1135 -0.6566
 2038SOL    MW4 7926   4.842   5.202   5.960 -1.0451  0.1594 -0.1587
 2039SOL     OW 7927   4.362   0.047   2.213  0.2053 -0.4515  0.0425
 2039SOL    HW2 7928   4.403   0.060   2.299 -2.0429  0.2637  1.1099
 2039SOL    HW3 7929   4.434   0.045   2.151  1.8575 -0.1417  1.8619
 2039SOL    MW4 7930   4.377   0.048   2.216 -0.3411 -0.0478 -0.1569
 2040SOL     OW 7931   0.381   0.195   0.426 -0.2339 -0.0313 -0.2791
 2040SOL    HW2 7932   0.474   0.220   0.428  0.0498 -1.0775  0.3618
 2040SOL    HW3 7933   0.352   0.217   0.338  1.4199 -2.4580 -1.5437
 2040SOL    MW4 7934   0.390   0.202   0.415 -0.1777  0.5427 -0.0499
 2041SOL     OW 7935   3.282   0.197   3.356  0.8425 -0.7602  0.2476
 2041SOL    HW2 7936   3.363   0.235   3.392 -0.4822  0.2697  2.3233
 2041SOL    HW3 7937   3.257   0.258   3.287  1.6131 -0.8747 -0.1495
 2041SOL    MW4 7938   3.289   0.210   3.352  0.2912  0.1034  0.5923
 2042SOL     OW 7939   0.441   6.344   0.952 -0.2787  0.1749 -0.4190
 2042SOL    HW2 7940   0.498   6.304   0.887  0.4303  0.6336 -0.0957
 2042SOL    HW3 7941   0.406   6.270   1.002 -1.7650 -0.2743 -2.0319
 2042SOL    MW4 7942   0.444   6.329   0.950  0.1366  0.2972 -0.0879
 2043SOL     OW 7943   5.465   3.607   1.706 -0.3679  0.7359 -0.3323
 2043SOL    HW2 7944   5.373   3.579   1.704 -0.1419 -0.0655 -0.1730
 2043SOL    HW3 7945   5.479   3.651   1.623 -0.2838 -1.2276 -1.4304
 2043SOL    MW4 7946   5.455   3.609   1.695  0.3473  0.1925 -1.0956
 2044SOL     OW 7947   6.180   3.593   4.416  0.3999  0.1630 -0.2629
 2044SOL    HW2 7948   6.275   3.593   4.410  0.5685 -2.4142  1.0983
 2044SOL    HW3 7949   6.152   3.667   4.362  3.1573  1.1935 -0.4083
 2044SOL    MW4 7950   6.189   3.603   4.408 -0.2677  0.1996 -0.1919
 2045SOL     OW 7951   3.338   3.252   5.566  0.1910  0.2113 -0.0035
 2045SOL    HW2 7952   3.423   3.223   5.533  1.2960  1.9580  1.1025
 2045SOL    HW3 7953   3.359   3.297   5.648 -1.4211  3.2043 -1.0933
 2045SOL    MW4 7954   3.352   3.254   5.572  0.1609  0.5190 -0.1981
 2046SOL     OW 7955   1.888   1.943   0.719 -0.5861 -0.6842  0.0800
 2046SOL    HW2 7956   1.941   1.982   0.649  0.4769 -2.4944 -0.1713
 2046SOL    HW3 7957   1.811   2.000   0.725  0.6254  1.1357 -0.6160
 2046SOL    MW4 7958   1.885   1.956   0.711  0.6176  0.6648  0.1627
 2047SOL     OW 7959   0.153   0.111   2.032 -0.7487  0.3568  0.0591
 2047SOL    HW2 7960   0.070   0.072   2.059  0.1756 -2.4467 -0.9000
 2047SOL    HW3 7961   0.184   0.156   2.111 -1.6523 -1.2915  1.4197
 2047SOL    MW4 7962   0.146   0.112   2.046  0.4574  0.3065 -0.2459
 2048SOL     OW 7963   5.139   4.486   1.476 -0.1995 -0.4629 -0.9343
 2048SOL    HW2 7964   5.198   4.472   1.401 -0.8375 -0.5474 -1.4293
 2048SOL    HW3 7965   5.053   4.501   1.436 -0.2990  0.8536 -0.2651
 2048SOL    MW4 7966   5.136   4.486   1.461 -0.3778 -0.0532  0.2255
 2049SOL     OW 7967   3.233   5.652   4.533  0.6586 -0.0928 -0.2514
 2049SOL    HW2 7968   3.281   5.734   4.537  0.2390  0.2273 -1.3153
 2049SOL    HW3 7969   3.145   5.675   4.563  0.6158 -0.2040 -0.2915
 2049SOL    MW4 7970   3.227   5.666   4.537  0.3295  0.1950  0.1400
 2050SOL     OW 7971   0.039   3.526   4.255  0.2316  0.3724  0.5251
 2050SOL    HW2 7972   0.089   3.445   4.245 -0.5439 -0.1384  0.7272
 2050SOL    HW3 7973   0.102   3.595   4.236  0.7968 -0.2903 -0.0787
 2050SOL    MW4 7974   0.054   3.524   4.251  0.3213  0.2019 -0.3012
 2051SOL     OW 7975   5.395   1.076   0.204 -0.1732  0.1212  0.7073
 2051SOL    HW2 7976   5.349   1.113   0.280  0.5494 -0.0431  1.2394
 2051SOL    HW3 7977   5.466   1.024   0.242  0.8310  0.8482 -0.0861
 2051SOL    MW4 7978   5.399   1.074   0.219  0.2714  0.2341 -0.2267
 2052SOL     OW 7979   0.335   3.847   4.699  0.2315  0.0871 -0.2112
 2052SOL    HW2 7980   0.429   3.828   4.687  0.5944  0.4790  1.7393
 2052SOL    HW3 7981   0.332   3.909   4.771 -1.4915  0.9979 -1.0052
 2052SOL    MW4 7982   0.347   3.853   4.707 -0.2466 -0.4084  0.0016
 2053SOL     OW 7983   4.852   2.372   1.794  0.1448  0.0753 -0.0737
 2053SOL    HW2 7984   4.892   2.442   1.846  1.5270 -0.4111 -0.4298
 2053SOL    HW3 7985   4.927   2.327   1.753 -0.8471  0.2431 -2.2380
 2053SOL    MW4 7986   4.867   2.375   1.795 -0.2008 -0.3156  0.2601
 2054SOL     OW 7987   0.387   3.110   4.915 -0.4774  0.9567 -0.5046
 2054SOL    HW2 7988   0.400   3.051   4.989 -1.7205 -1.0125 -1.7525
 2054SOL    HW3 7989   0.345   3.187   4.953  0.9357  0.9805  1.1396
 2054SOL    MW4 7990   0.383   3.112   4.930  0.5256  0.2966  0.3686
 2055SOL     OW 7991   2.848   5.101   4.228  0.4133  0.3857  0.0460
 2055SOL    HW2 7992   2.790   5.108   4.304  0.0451 -0.4473 -0.1483
 2055SOL    HW3 7993   2.914   5.036   4.253  0.3034  0.1212 -0.3319
 2055SOL    MW4 7994   2.849   5.093   4.241 -0.0425  0.4075 -0.1069
 2056SOL     OW 7995   3.689   4.340   4.119 -0.1199 -0.1606 -0.2182
 2056SOL    HW2 7996   3.681   4.268   4.056 -2.3091 -0.6708  0.5432
 2056SOL    HW3 7997   3.760   4.313   4.177  0.5088 -0.6844 -1.1981
 2056SOL    MW4 7998   3.697   4.327   4.118 -0.2727 -0.1439  0.3009
 2057SOL     OW 7999   0.769   0.287   6.007 -0.1439 -0.6637  0.4408
 2057SOL    HW2 8000   0.711   0.252   5.940 -2.0908  0.8579  1.2220
 2057SOL    HW3 8001   0.718   0.282   6.088  1.2717 -0.3643  1.3813
 2057SOL    MW4 8002   0.754   0.282   6.009 -0.2409  0.2953  0.4616
 2058SOL     OW 8003   1.878   2.958   0.857 -0.5528 -0.3788  0.2929
 2058SOL    HW2 8004   1.899   3.007   0.936 -1.6621  1.7531 -0.6599
 2058SOL    HW3 8005   1.953   2.899   0.845  0.6343  0.7491  1.7568
 2058SOL    MW4 8006   1.891   2.956   0.866  0.0101 -0.4196  0.3047
 2059SOL     OW 8007   6.160   5.228   1.893 -1.1074 -0.1685 -0.3130
 2059SOL    HW2 8008   6.249   5.260   1.878 -0.6205 -1.0024  0.6444
 2059SOL    HW3 8009   6.118   5.234   1.807 -0.2457  0.5740 -0.7050
 2059SOL    MW4 8010   6.166   5.233   1.880 -0.2102  0.0631 -0.0439
 2060SOL     OW 8011   2.952   0.267   3.079 -0.1507  0.3053 -0.4624
 2060SOL    HW2 8012   2.965   0.342   3.022  0.6284  1.0827  0.6888
 2060SOL    HW3 8013   2.876   0.289   3.132  0.9663  0.9935  0.9177
 2060SOL    MW4 8014   2.944   0.280   3.078  0.2145 -0.3009 -0.3398
 2061SOL     OW 8015   2.690   2.685   4.421 -0.0201  0.5642 -0.3525
 2061SOL    HW2 8016   2.598   2.710   4.410  0.0113  1.3605  1.0276
 2061SOL    HW3 8017   2.738   2.747   4.366 -0.1211  2.1405  1.2461
 2061SOL    MW4 8018   2.684   2.697   4.412 -0.5341  0.3206 -0.0887
 2062SOL     OW 8019   5.382   1.578   4.274  0.6542 -0.1034 -0.0101
 2062SOL    HW2 8020   5.305   1.555   4.221  2.0547  0.8314 -2.6345
 2062SOL    HW3 8021   5.396   1.502   4.331 -1.3803 -0.8648 -0.4488
 2062SOL    MW4 8022   5.374   1.565   4.274  0.2903  0.0460  0.7103
 2063SOL     OW 8023   3.825   1.267   1.920 -0.0560 -0.4185 -0.2730
 2063SOL    HW2 8024   3.876   1.185   1.921  0.7767  0.0534  1.8229
 2063SOL    HW3 8025   3.854   1.313   1.998 -1.7241  1.1606 -0.5360
 2063SOL    MW4 8026   3.836   1.262   1.930 -0.5014 -0.6529 -0.0846
 2064SOL     OW 8027   3.631   2.323   5.588 -0.2178 -0.0558  0.3199
 2064SOL    HW2 8028   3.660   2.233   5.579  2.1754  0.8241 -1.9339
 2064SOL    HW3 8029   3.535   2.318   5.583 -0.1082 -2.3965 -0.4103
 2064SOL    MW4 8030   3.622   2.311   5.586 -0.0014  0.3411  0.7683
 2065SOL     OW 8031   3.934   2.040   2.355  0.4065  0.3497 -0.4296
 2065SOL    HW2 8032   3.947   1.983   2.279 -0.3872 -1.2374  0.5628
 2065SOL    HW3 8033   3.911   1.980   2.426 -0.6480  1.9298  0.6327
 2065SOL    MW4 8034   3.932   2.024   2.354 -0.2284 -0.1892 -0.1540
 2066SOL     OW 8035   0.857   4.420   4.905  0.5521  0.0769  0.0242
 2066SOL    HW2 8036   0.855   4.415   4.810  0.5217 -1.1170  0.0705
 2066SOL    HW3 8037   0.806   4.345   4.934 -2.0122  2.0719  1.0032
 2066SOL    MW4 8038   0.850   4.410   4.897 -0.4255  0.6728  0.4929
 2067SOL     OW 8039   6.150   5.444   0.189 -0.1916  0.0005  0.4531
 2067SOL    HW2 8040   6.078   5.393   0.152  0.8498  0.0932 -1.8692
 2067SOL    HW3 8041   6.217   5.380   0.209  0.4933  0.2292 -0.9585
 2067SOL    MW4 8042   6.149   5.429   0.187  0.4610  0.0490  0.0284
 2068SOL     OW 8043   3.870   3.400   1.461 -0.3276  0.0763 -0.4634
 2068SOL    HW2 8044   3.938   3.450   1.416 -0.4640  0.1368 -0.6038
 2068SOL    HW3 8045   3.790   3.418   1.411 -0.7990  1.3745  0.7010
 2068SOL    MW4 8046   3.868   3.409   1.448  0.4142  0.0881 -0.1079
 2069SOL     OW 8047   6.168   1.348   3.128 -0.2056  0.0260 -0.6317
 2069SOL    HW2 8048   6.142   1.261   3.161 -1.4906  1.1955  1.7197
 2069SOL    HW3 8049   6.090   1.381   3.084  0.3927 -0.1232 -1.8196
 2069SOL    MW4 8050   6.154   1.341   3.127 -0.0821 -0.3193  0.3576
 2070SOL     OW 8051   2.674   0.287   1.972  0.0861  0.7164  0.5415
 2070SOL    HW2 8052   2.703   0.319   1.886  1.0621  0.6070  0.8182
 2070SOL    HW3 8053   2.596   0.339   1.991  0.9079  2.0567  0.4098
 2070SOL    MW4 8054   2.668   0.298   1.963  0.0436 -0.5506 -0.8070
 2071SOL     OW 8055   4.612   2.748   3.197 -0.0246  0.2616 -0.4011
 2071SOL    HW2 8056   4.702   2.719   3.183 -0.7771 -1.2173 -2.7424
 2071SOL    HW3 8057   4.615   2.843   3.185  1.0438  0.0865 -1.6423
 2071SOL    MW4 8058   4.624   2.757   3.194 -0.1142 -0.3001  0.0007
 2072SOL     OW 8059   2.922   1.075   3.294  0.3399  0.4369 -0.6494
 2072SOL    HW2 8060   2.945   1.166   3.309  2.1792 -0.2289  1.0649
 2072SOL    HW3 8061   2.975   1.049   3.218  0.9110  0.4286 -0.2515
 2072SOL    MW4 8062   2.932   1.083   3.286 -0.7150  0.1541 -0.3148
 2073SOL     OW 8063   0.837   2.013   3.331  0.3149 -0.2775  0.3328
 2073SOL    HW2 8064   0.851   2.089   3.387  1.7756 -0.6486  0.5029
 2073SOL    HW3 8065   0.904   2.020   3.264 -2.0809  0.7671 -2.1360
 2073SOL    MW4 8066   0.847   2.024   3.330  1.0893  0.3860  0.0854
 2074SOL     OW 8067   2.440   6.268   2.871  0.5140 -0.4322  1.1355
 2074SOL    HW2 8068   2.370   6.330   2.854  0.3423 -1.3783 -2.4145
 2074SOL    HW3 8069   2.504   6.317   2.924 -0.7191  1.9125  0.5693
 2074SOL    MW4 8070   2.439   6.282   2.876 -0.0884 -0.2544 -0.0126
 2075SOL     OW 8071   1.001   5.554   3.786 -0.3647  0.0615  0.0660
 2075SOL    HW2 8072   0.948   5.514   3.856  1.3338 -1.5125  0.5371
 2075SOL    HW3 8073   0.957   5.528   3.705 -2.0141  1.3998  0.4504
 2075SOL    MW4 8074   0.988   5.545   3.785 -0.0154  0.2431  0.7190
 2076SOL     OW 8075   3.221   3.968   1.256 -0.1432 -0.1716 -0.2026
 2076SOL    HW2 8076   3.218   4.016   1.173 -0.4404 -1.2546 -0.8292
 2076SOL    HW3 8077   3.199   4.034   1.322 -2.1190  0.2202 -1.1922
 2076SOL    MW4 8078   3.218   3.983   1.254  0.5112 -0.3388  0.2009
 2077SOL     OW 8079   5.832   1.576   3.275  0.6147 -0.7012  0.1963
 2077SOL    HW2 8080   5.913   1.605   3.318  0.5194 -0.4139  0.1788
 2077SOL    HW3 8081   5.822   1.485   3.304 -0.2151 -0.0905  1.9377
 2077SOL    MW4 8082   5.842   1.567   3.284  0.0141  0.3424 -0.2435
 2078SOL     OW 8083   1.815   4.993   5.983  0.1570  0.2322  0.7958
 2078SOL    HW2 8084   1.866   5.041   6.049 -0.4864  0.2441  1.3051
 2078SOL    HW3 8085   1.857   4.908   5.977  1.8297  1.1121 -0.7334
 2078SOL    MW4 8086   1.827   4.988   5.991 -0.2589  0.3196 -0.5155
 2079SOL     OW 8087   6.270   1.643   0.384  0.2072  0.1218 -0.1138
 2079SOL    HW2 8088   6.285   1.696   0.463 -0.7803 -0.2743  0.3587
 2079SOL    HW3 8089   6.350   1.652   0.333  1.0072  0.1004  1.1074
 2079SOL    MW4 8090   6.282   1.651   0.388  0.3605  0.2323  0.2919
 2080SOL     OW 8091   1.302   2.656   3.169  0.3014  0.1291 -0.1003
 2080SOL    HW2 8092   1.214   2.683   3.193  0.4983 -0.0737  0.8644
 2080SOL    HW3 8093   1.352   2.737   3.162 -0.0325  0.2713 -0.9948
 2080SOL    MW4 8094   1.297   2.670   3.171  0.1674  0.1563 -0.0523
 2081SOL     OW 8095   2.730   5.656   3.097  0.0420 -0.2058 -0.7568
 2081SOL    HW2 8096   2.640   5.628   3.084 -0.4187  0.9296 -0.1255
 2081SOL    HW3 8097   2.729   5.706   3.178  1.3167 -0.4933 -0.5363
 2081SOL    MW4 8098   2.718   5.659   3.106  0.2575 -0.1729  0.0651
 2082SOL     OW 8099   5.768   0.485   4.869  0.6941  0.3630  0.6299
 2082SOL    HW2 8100   5.750   0.520   4.781  1.6755  0.0675  0.3002
 2082SOL    HW3 8101   5.746   0.557   4.928  0.1830  0.6239  0.1294
 2082SOL    MW4 8102   5.763   0.499   4.865  0.4311  0.0668  0.2038
 2083SOL     OW 8103   3.705   2.325   1.691 -0.3037 -0.2937  0.7975
 2083SOL    HW2 8104   3.801   2.321   1.690 -0.1673  1.7579  0.1228
 2083SOL    HW3 8105   3.683   2.383   1.618 -2.0751 -0.7606  0.9219
 2083SOL    MW4 8106   3.715   2.332   1.681  0.1937  0.1923  0.2018
 2084SOL     OW 8107   3.476   1.503   2.425  0.3605  0.2693  0.1356
 2084SOL    HW2 8108   3.565   1.483   2.398  0.2760  1.4467 -1.1897
 2084SOL    HW3 8109   3.481   1.592   2.460 -0.2623  0.2982  0.1668
 2084SOL    MW4 8110   3.488   1.512   2.426  0.0511 -0.6983  0.1362
 2085SOL     OW 8111   5.009   5.539   6.360  0.5462 -0.3400 -0.0059
 2085SOL    HW2 8112   4.979   5.607   6.421  1.1628 -0.7696  0.7964
 2085SOL    HW3 8113   5.082   5.579   6.314 -0.1458  0.1114 -0.7366
 2085SOL    MW4 8114   5.015   5.554   6.362  0.5639  0.2683  0.4642
 2086SOL     OW 8115   4.981   0.303   1.080 -0.0036 -0.0728  0.0933
 2086SOL    HW2 8116   4.898   0.317   1.035 -0.1568  0.8671  0.6288
 2086SOL    HW3 8117   4.971   0.217   1.122 -0.3252 -0.4015 -0.6414
 2086SOL    MW4 8118   4.968   0.294   1.080  0.2731  0.3477  0.0416
 2087SOL     OW 8119   2.184   2.635   3.940  0.1221 -0.5491 -0.0214
 2087SOL    HW2 8120   2.277   2.652   3.953  0.1417 -0.3154 -0.4516
 2087SOL    HW3 8121   2.166   2.666   3.852 -0.6277  0.4956  0.4834
 2087SOL    MW4 8122   2.194   2.641   3.930  0.3025 -0.1777  0.3546
 2088SOL     OW 8123   0.276   2.784   3.198 -0.5378  0.2302 -0.9669
 2088SOL    HW2 8124   0.337   2.798   3.271 -0.9938  0.6369 -0.6601
 2088SOL    HW3 8125   0.190   2.777   3.239 -0.6988 -0.4299 -1.3909
 2088SOL    MW4 8126   0.273   2.785   3.213 -0.2971  0.5253 -0.2304
 2089SOL     OW 8127   0.080   0.863   4.052 -0.1582 -0.2771 -0.2196
 2089SOL    HW2 8128   0.138   0.915   3.995 -2.0896  0.6222 -1.4765
 2089SOL    HW3 8129   0.124   0.863   4.137  0.7363  2.0337 -0.6048
 2089SOL    MW4 8130   0.094   0.870   4.056  0.0078  0.0746 -0.4581
 2090SOL     OW 8131   4.405   1.465   1.531  0.3612  0.2106  0.3434
 2090SOL    HW2 8132   4.461   1.401   1.487  3.0479  1.9840  0.9105
 2090SOL    HW3 8133   4.426   1.456   1.624 -2.9416 -1.3753  1.0720
 2090SOL    MW4 8134   4.415   1.456   1.538 -0.6621  0.7192 -0.3077
 2091SOL     OW 8135   0.099   0.208   3.332 -0.1818 -0.3218  0.0254
 2091SOL    HW2 8136   0.131   0.253   3.410 -1.0364 -0.0179  0.2149
 2091SOL    HW3 8137   0.025   0.155   3.364 -0.2407 -0.5613 -0.4927
 2091SOL    MW4 8138   0.093   0.207   3.347 -0.2473 -0.2235  0.3111
 2092SOL     OW 8139   5.998   3.099   4.423  0.3556 -0.3708  0.2350
 2092SOL    HW2 8140   6.037   3.178   4.460 -0.0788 -0.6322  1.3141
 2092SOL    HW3 8141   5.984   3.119   4.331  0.2542  0.8032  0.4905
 2092SOL    MW4 8142   6.001   3.112   4.416  0.3383 -0.2648 -0.0150
 2093SOL     OW 8143   3.920   5.171   2.278  0.0526 -0.4350 -0.8070
 2093SOL    HW2 8144   4.013   5.186   2.261  0.2245 -1.9218 -1.3062
 2093SOL    HW3 8145   3.906   5.201   2.368  1.0264 -0.2800 -0.7024
 2093SOL    MW4 8146   3.930   5.177   2.287 -0.4211 -0.6014 -0.4749
 2094SOL     OW 8147   3.597   1.347   0.090 -0.6822 -0.0714  0.7088
 2094SOL    HW2 8148   3.584   1.252   0.084 -0.7647 -0.0153 -0.1655
 2094SOL    HW3 8149   3.580   1.379   0.002 -0.4865  0.7432  0.9558
 2094SOL    MW4 8150   3.593   1.339   0.078 -0.0316 -0.1676 -0.7079
 2095SOL     OW 8151   2.049   0.767   4.985  0.4388 -0.0155 -0.5239
 2095SOL    HW2 8152   2.117   0.831   5.006 -1.2114  2.0009 -1.0444
 2095SOL    HW3 8153   1.997   0.808   4.917 -1.3162 -1.4776 -0.1398
 2095SOL    MW4 8154   2.051   0.781   4.979 -0.0262  0.1250 -0.2127
 2096SOL     OW 8155   0.740   4.457   1.719 -0.5445 -0.1002 -0.3188
 2096SOL    HW2 8156   0.781   4.541   1.737 -1.0918 -0.0293  0.6650
 2096SOL    HW3 8157   0.745   4.448   1.624  1.6939 -0.0981 -0.2594
 2096SOL    MW4 8158   0.746   4.467   1.709  0.1220  0.4555 -0.0458
 2097SOL     OW 8159   6.243   1.526   3.323 -0.3342 -0.0754 -0.5656
 2097SOL    HW2 8160   6.204   1.480   3.249 -0.6435  0.8348 -0.9916
 2097SOL    HW3 8161   6.322   1.566   3.286 -0.9236  1.0650 -0.6301
 2097SOL    MW4 8162   6.248   1.525   3.308  0.0139  0.2646  0.4269
 2098SOL     OW 8163   1.459   0.776   4.750  0.2052 -0.1270 -0.2269
 2098SOL    HW2 8164   1.511   0.742   4.823  0.0685 -0.4350 -0.2712
 2098SOL    HW3 8165   1.484   0.868   4.744  1.5776 -0.5321 -0.9716
 2098SOL    MW4 8166   1.469   0.784   4.759 -0.0557  0.1605  0.4971
 2099SOL     OW 8167   5.303   5.851   1.260 -0.3866 -0.1542 -0.2104
 2099SOL    HW2 8168   5.303   5.944   1.240  0.5110 -0.1559 -0.2232
 2099SOL    HW3 8169   5.210   5.829   1.268 -0.6860  0.4125 -1.7093
 2099SOL    MW4 8170   5.290   5.860   1.258 -0.0720  0.5117  0.6381
 2100SOL     OW 8171   2.022   5.557   0.315  0.2384  0.3862 -0.1441
 2100SOL    HW2 8172   2.024   5.471   0.274  0.5706  0.7525 -0.9313
 2100SOL    HW3 8173   2.108   5.594   0.297  0.3253  0.6360  0.7435
 2100SOL    MW4 8174   2.033   5.551   0.307  0.0202 -0.1958  0.4643
 2101SOL     OW 8175   1.684   4.716   4.095  0.1821 -0.3894  0.7798
 2101SOL    HW2 8176   1.734   4.798   4.098 -0.5470  0.0459  2.1479
 2101SOL    HW3 8177   1.719   4.669   4.020  2.0522  0.2699  1.1828
 2101SOL    MW4 8178   1.695   4.721   4.086 -0.0331  0.3365  0.4043
 2102SOL     OW 8179   6.395   4.631   2.823 -0.0485  0.6242 -0.4116
 2102SOL    HW2 8180   6.482   4.606   2.792 -0.3432  1.1358 -1.7123
 2102SOL    HW3 8181   6.371   4.563   2.886  1.1300  0.2787 -0.3184
 2102SOL    MW4 8182   6.403   4.619   2.827  0.1560 -0.1198 -0.0468
 2103SOL     OW 8183   0.612   5.027   0.792 -0.3373  0.3272 -0.0568
 2103SOL    HW2 8184   0.647   4.960   0.732 -0.5111 -0.0622  0.2726
 2103SOL    HW3 8185   0.518   5.026   0.776 -0.1727  1.8569 -1.4393
 2103SOL    MW4 8186   0.604   5.018   0.782  0.2144 -0.3203  0.5251
 2104SOL     OW 8187   2.955   1.881   5.254  0.2402 -0.4821 -0.1682
 2104SOL    HW2 8188   3.039   1.891   5.299  0.1794 -1.8227  0.2859
 2104SOL    HW3 8189   2.973   1.906   5.163  1.3013 -1.4139 -0.2293
 2104SOL    MW4 8190   2.968   1.886   5.248  0.0291 -0.6562 -0.2930
 2105SOL     OW 8191   6.392   5.536   5.487  0.5863 -0.4858  0.2286
 2105SOL    HW2 8192   6.483   5.550   5.513  0.3406 -0.7106  1.2525
 2105SOL    HW3 8193   6.356   5.479   5.555 -0.3857 -0.2054 -0.0357
 2105SOL    MW4 8194   6.399   5.530   5.499 -0.7947 -0.4876 -0.0508
 2106SOL     OW 8195   4.061   1.138   5.685  0.3087 -0.1808  0.0487
 2106SOL    HW2 8196   4.134   1.135   5.746  0.4753  1.5125 -0.0150
 2106SOL    HW3 8197   3.986   1.108   5.737  0.3889  1.4733  1.2422
 2106SOL    MW4 8198   4.060   1.134   5.700  0.1233 -0.5762 -0.5368
 2107SOL     OW 8199   1.755   0.981   5.951 -0.3634 -0.4491 -0.3148
 2107SOL    HW2 8200   1.825   0.957   5.890  0.1974 -2.8155  1.0872
 2107SOL    HW3 8201   1.698   0.904   5.953 -0.4359 -0.4045  1.9628
 2107SOL    MW4 8202   1.757   0.967   5.943 -0.0411 -0.3087 -0.1876
 2108SOL     OW 8203   4.733   5.807   5.539  0.5983  0.1517  0.3779
 2108SOL    HW2 8204   4.821   5.778   5.563  0.6858  0.4665  0.4430
 2108SOL    HW3 8205   4.675   5.766   5.604  0.7841  0.6192  0.8458
 2108SOL    MW4 8206   4.737   5.798   5.551  0.1634 -1.1908 -0.0333
 2109SOL     OW 8207   5.279   3.083   2.963 -0.3727 -0.4838  0.5847
 2109SOL    HW2 8208   5.199   3.032   2.952 -0.2393 -0.6666  0.4465
 2109SOL    HW3 8209   5.256   3.171   2.932 -1.0977  0.0080  2.4167
 2109SOL    MW4 8210   5.266   3.088   2.957  0.2303  0.1308 -0.8439
 2110SOL     OW 8211   0.267   1.010   3.050  0.1139 -0.2289 -0.5347
 2110SOL    HW2 8212   0.356   0.978   3.033 -0.9139 -3.2676 -0.8054
 2110SOL    HW3 8213   0.211   0.934   3.037 -2.2955  0.7780  2.6082
 2110SOL    MW4 8214   0.271   0.996   3.046 -0.3517  0.4796  0.7573
 2111SOL     OW 8215   5.274   4.588   0.616 -0.1632  0.0875  0.2031
 2111SOL    HW2 8216   5.229   4.505   0.631 -1.8646  1.2017  1.6588
 2111SOL    HW3 8217   5.258   4.609   0.524 -0.5067 -0.7438  0.0734
 2111SOL    MW4 8218   5.266   4.580   0.606 -0.0540 -0.0967 -0.5368
 2112SOL     OW 8219   4.676   0.301   2.743 -0.3293  0.1215  0.2302
 2112SOL    HW2 8220   4.725   0.219   2.751 -2.0540 -0.9838 -0.0280
 2112SOL    HW3 8221   4.654   0.324   2.833 -2.2316 -1.2636  0.1816
 2112SOL    MW4 8222   4.680   0.293   2.756 -0.0977 -0.4234  0.0707
 2113SOL     OW 8223   4.687   1.375   2.884 -0.2947  0.4136 -0.1033
 2113SOL    HW2 8224   4.762   1.316   2.891  1.2278  2.2365  0.1037
 2113SOL    HW3 8225   4.673   1.405   2.974 -0.3684  1.1132 -0.3438
 2113SOL    MW4 8226   4.695   1.371   2.897 -0.1656  0.1369  0.2204
 2114SOL     OW 8227   5.314   2.912   2.370  0.3121  0.1662  0.2448
 2114SOL    HW2 8228   5.409   2.906   2.363  0.1424 -1.7833 -0.7763
 2114SOL    HW3 8229   5.297   3.006   2.385  2.3661  0.5422  0.4249
 2114SOL    MW4 8230   5.324   2.924   2.371  0.5215  0.7773  0.3598
 2115SOL     OW 8231   3.828   6.229   2.248 -0.0001 -0.0963 -1.0521
 2115SOL    HW2 8232   3.923   6.220   2.250  0.1560  1.2542  0.5430
 2115SOL    HW3 8233   3.795   6.140   2.254  1.1770 -0.5483 -0.9970
 2115SOL    MW4 8234   3.836   6.216   2.249  0.4017 -0.5223 -0.4230
 2116SOL     OW 8235   1.487   1.471   0.792 -0.3135  0.2132 -0.3236
 2116SOL    HW2 8236   1.493   1.377   0.775  1.7092 -0.4069  2.8610
 2116SOL    HW3 8237   1.543   1.511   0.725  0.5676 -1.1147 -0.4323
 2116SOL    MW4 8238   1.496   1.463   0.781 -0.7488 -0.6085 -0.1530
 2117SOL     OW 8239   1.065   2.151   0.351  0.5929 -0.1278 -0.1406
 2117SOL    HW2 8240   1.077   2.246   0.347  0.8881 -0.1884 -0.7843
 2117SOL    HW3 8241   1.135   2.116   0.295  0.0103 -0.6880 -0.5193
 2117SOL    MW4 8242   1.076   2.159   0.343  0.2871 -0.4221 -0.3378
 2118SOL     OW 8243   5.958   0.708   5.395 -0.1476 -0.3233  0.1120
 2118SOL    HW2 8244   5.884   0.658   5.360 -0.3185  1.5523 -2.5058
 2118SOL    HW3 8245   6.031   0.688   5.335  0.5043  0.4843  0.6200
 2118SOL    MW4 8246   5.958   0.699   5.382  0.0859 -0.1728  0.2074
 2119SOL     OW 8247   3.548   1.620   2.800  0.0233 -0.3089  0.1078
 2119SOL    HW2 8248   3.557   1.526   2.787  2.3330 -0.0528 -0.7279
 2119SOL    HW3 8249   3.498   1.629   2.882 -1.7006 -2.1854 -0.6679
 2119SOL    MW4 8250   3.543   1.609   2.809 -0.2344  0.0740  0.8594
 2120SOL     OW 8251   5.365   6.161   0.744 -0.6034 -0.0896  0.2761
 2120SOL    HW2 8252   5.348   6.203   0.659  0.0952 -1.4734 -0.5798
 2120SOL    HW3 8253   5.454   6.188   0.767 -0.3518 -0.6572 -0.0174
 2120SOL    MW4 8254   5.374   6.170   0.735  0.7232 -0.7062  0.0813
 2121SOL     OW 8255   4.646   0.028   2.077 -0.6678  0.2862 -0.0571
 2121SOL    HW2 8256   4.698   0.042   1.998 -0.1804  1.9071  0.5095
 2121SOL    HW3 8257   4.664  -0.062   2.102  0.1212  0.1250 -1.1123
 2121SOL    MW4 8258   4.655   0.018   2.070 -0.5144 -0.2490 -0.1908
 2122SOL     OW 8259   2.449   6.196   5.718  0.1391  0.4994 -0.3994
 2122SOL    HW2 8260   2.474   6.206   5.626 -1.7794  0.1620 -1.0029
 2122SOL    HW3 8261   2.413   6.281   5.743 -0.1106  0.3376 -0.2071
 2122SOL    MW4 8262   2.448   6.208   5.709 -0.0004  0.0977 -0.0839
 2123SOL     OW 8263   5.875   4.390   6.089 -0.0507  0.4398 -0.2812
 2123SOL    HW2 8264   5.883   4.437   6.173  0.3049  0.5502 -0.3752
 2123SOL    HW3 8265   5.787   4.411   6.058 -0.4930 -0.2682  0.4634
 2123SOL    MW4 8266   5.864   4.399   6.096 -1.0862 -0.6350 -0.1859
 2124SOL     OW 8267   1.699   5.919   2.806 -0.1466 -0.0674 -0.0861
 2124SOL    HW2 8268   1.740   5.840   2.772  1.6116  1.1773 -1.0341
 2124SOL    HW3 8269   1.708   5.983   2.735  0.1851  1.5162  1.3329
 2124SOL    MW4 8270   1.706   5.917   2.792 -0.2069 -0.4563 -0.1841
 2125SOL     OW 8271   3.379   5.628   1.792 -0.2661  0.2499  0.3261
 2125SOL    HW2 8272   3.422   5.548   1.821 -1.5216  0.3088  2.5953
 2125SOL    HW3 8273   3.293   5.599   1.762 -0.2092  0.6027 -0.1864
 2125SOL    MW4 8274   3.374   5.614   1.792  0.1775 -0.2345  0.0209
 2126SOL     OW 8275   4.651   3.244   2.666 -0.1001 -0.3296  0.5708
 2126SOL    HW2 8276   4.603   3.317   2.627  0.4635 -0.3371 -0.1570
 2126SOL    HW3 8277   4.594   3.212   2.736 -0.3662  0.7811  0.8766
 2126SOL    MW4 8278   4.637   3.249   2.671  0.4027 -0.1448  0.6093
 2127SOL     OW 8279   2.628   0.495   5.655 -0.6723  0.1033  0.1727
 2127SOL    HW2 8280   2.698   0.441   5.618 -0.8187 -0.0655  0.1399
 2127SOL    HW3 8281   2.559   0.433   5.677 -1.4238  0.4102 -1.1803
 2127SOL    MW4 8282   2.628   0.480   5.653 -0.3600  0.0205  0.0436
 2128SOL     OW 8283   1.997   0.619   0.749  0.1127 -0.0565  0.1426
 2128SOL    HW2 8284   1.960   0.536   0.720 -1.1523 -0.0100  1.4801
 2128SOL    HW3 8285   1.939   0.686   0.712  1.0315  0.2388 -0.7952
 2128SOL    MW4 8286   1.984   0.617   0.740  0.0371 -0.0652  0.5954
 2129SOL     OW 8287   0.598   4.974   1.535  0.1837  0.0442 -0.0767
 2129SOL    HW2 8288   0.611   4.911   1.464 -1.4436 -0.7115  0.2584
 2129SOL    HW3 8289   0.517   4.947   1.577  0.4875  1.1914  1.3438
 2129SOL    MW4 8290   0.589   4.962   1.531 -0.1934 -0.1089 -0.3068
 2130SOL     OW 8291   4.314   2.647   3.704  0.5822 -0.1644 -0.3662
 2130SOL    HW2 8292   4.319   2.557   3.736  1.6984 -0.1294 -0.3902
 2130SOL    HW3 8293   4.302   2.700   3.782  1.1932 -0.2468 -0.2079
 2130SOL    MW4 8294   4.313   2.642   3.718 -0.0001 -0.0169 -0.0629
 2131SOL     OW 8295   3.234   3.101   4.052  0.3266  0.0365 -0.4566
 2131SOL    HW2 8296   3.267   3.037   3.989  0.4222 -0.5812  0.2158
 2131SOL    HW3 8297   3.166   3.149   4.004 -0.3847 -1.1786 -0.6850
 2131SOL    MW4 8298   3.229   3.099   4.037  0.0227  0.5211  0.3098
 2132SOL     OW 8299   0.321   3.327   2.133  0.1767 -0.0874  0.2165
 2132SOL    HW2 8300   0.240   3.280   2.149 -1.2294  2.1815  0.2089
 2132SOL    HW3 8301   0.340   3.313   2.040 -1.4094  1.0604 -0.3192
 2132SOL    MW4 8302   0.313   3.319   2.123 -0.3340  0.4709 -0.6758
 2133SOL     OW 8303   5.823   0.926   2.471 -0.0860  0.8297 -0.5064
 2133SOL    HW2 8304   5.895   0.926   2.534  0.6502  1.6580 -1.3397
 2133SOL    HW3 8305   5.857   0.881   2.394 -0.8867  0.0932 -0.4552
 2133SOL    MW4 8306   5.837   0.920   2.470  0.2552  0.5497 -0.5858
 2134SOL     OW 8307   3.810   5.509   6.314  0.3267 -0.1787  0.5493
 2134SOL    HW2 8308   3.895   5.469   6.293 -0.1074 -1.7557  1.6203
 2134SOL    HW3 8309   3.784   5.469   6.397 -2.4382 -1.3549 -0.7475
 2134SOL    MW4 8310   3.818   5.498   6.322  0.3069  0.1648 -0.5364
 2135SOL     OW 8311   0.094   0.624   3.842  0.0662 -0.5288  0.3341
 2135SOL    HW2 8312   0.084   0.713   3.811  1.4617 -1.2908 -2.6083
 2135SOL    HW3 8313   0.137   0.633   3.928  0.3946  1.5923 -0.0067
 2135SOL    MW4 8314   0.098   0.637   3.849  0.4171  0.3200 -0.2346
 2136SOL     OW 8315   6.427   2.985   4.196  0.5814 -0.2694  0.2422
 2136SOL    HW2 8316   6.493   2.971   4.127  1.1339 -0.9956  0.8933
 2136SOL    HW3 8317   6.436   3.077   4.219 -0.0929  0.1658 -1.1252
 2136SOL    MW4 8318   6.437   2.995   4.190 -0.0671 -0.0686 -0.0854
 2137SOL     OW 8319   4.049   6.023   3.207  0.5002  0.1211  0.3176
 2137SOL    HW2 8320   4.132   6.005   3.251  0.1071 -1.6428  0.3920
 2137SOL    HW3 8321   4.069   6.018   3.114  0.3503 -1.0182  0.3368
 2137SOL    MW4 8322   4.063   6.020   3.201  0.3316 -0.5388  0.0312
 2138SOL     OW 8323   0.771   1.933   2.645 -0.0865 -0.1932 -0.0201
 2138SOL    HW2 8324   0.718   1.855   2.667 -0.4582 -0.0449 -0.3890
 2138SOL    HW3 8325   0.766   1.939   2.550  2.0982 -1.2409 -0.2701
 2138SOL    MW4 8326   0.763   1.923   2.636 -0.2335  0.5692  0.0435
 2139SOL     OW 8327   0.760   0.836   0.087  0.5367 -0.0407  0.0520
 2139SOL    HW2 8328   0.706   0.781   0.031  1.6014 -0.3061 -0.7431
 2139SOL    HW3 8329   0.850   0.804   0.073  1.2824  2.2437 -0.9053
 2139SOL    MW4 8330   0.765   0.825   0.078  0.3976  0.0227  0.5702
 2140SOL     OW 8331   2.407   0.646   6.293 -0.0835 -0.4315 -0.0635
 2140SOL    HW2 8332   2.436   0.704   6.223  1.3821 -1.4765 -0.3732
 2140SOL    HW3 8333   2.378   0.705   6.363  2.0997  0.7371 -0.0461
 2140SOL    MW4 8334   2.407   0.662   6.293  0.2371  0.7723 -0.2557
 2141SOL     OW 8335   1.768   0.886   0.628 -0.2664  0.2979 -0.4798
 2141SOL    HW2 8336   1.746   0.947   0.698  0.3358 -2.4695  2.3566
 2141SOL    HW3 8337   1.688   0.836   0.613 -0.0397  0.0354 -0.8256
 2141SOL    MW4 8338   1.755   0.887   0.636 -0.3222 -0.0777  0.6537
 2142SOL     OW 8339   0.279   0.430   5.340  0.2222  0.8729 -0.3183
 2142SOL    HW2 8340   0.334   0.435   5.418  0.4369  0.8379 -0.4664
 2142SOL    HW3 8341   0.215   0.361   5.360  1.1793 -0.1680 -0.7350
 2142SOL    MW4 8342   0.278   0.422   5.353 -0.1671  0.0598  0.1145
 2143SOL     OW 8343   3.520   2.829   2.301  0.3576 -0.3048 -0.3780
 2143SOL    HW2 8344   3.451   2.889   2.330  0.7040  0.5298 -1.2174
 2143SOL    HW3 8345   3.530   2.847   2.207  0.5214 -1.6405 -0.6366
 2143SOL    MW4 8346   3.513   2.839   2.292  0.0403  0.3794 -0.0163
 2144SOL     OW 8347   5.344   3.380   5.315  0.3145  0.3691 -0.2019
 2144SOL    HW2 8348   5.394   3.459   5.295  1.5677 -0.1880  0.6343
 2144SOL    HW3 8349   5.405   3.308   5.300 -0.6360 -0.4199 -0.3885
 2144SOL    MW4 8350   5.359   3.381   5.310  0.4297  0.6062 -0.2452
 2145SOL     OW 8351   2.696   2.899   6.246 -0.4511  0.1187 -0.0080
 2145SOL    HW2 8352   2.614   2.916   6.200 -1.0830  2.1463  1.7221
 2145SOL    HW3 8353   2.677   2.918   6.338  1.5685 -0.8549  0.6780
 2145SOL    MW4 8354   2.683   2.903   6.252 -0.1425 -0.5609  0.0458
 2146SOL     OW 8355   5.922   5.598   0.959 -0.0295 -0.0126  0.1201
 2146SOL    HW2 8356   6.014   5.600   0.935 -0.1657  0.1814 -0.4007
 2146SOL    HW3 8357   5.891   5.688   0.945 -0.2778 -0.0561  0.3712
 2146SOL    MW4 8358   5.930   5.610   0.954  0.0451 -0.0887 -0.4043
 2147SOL     OW 8359   2.606   0.019   4.161  0.0221 -0.5077  0.1538
 2147SOL    HW2 8360   2.580   0.013   4.253  0.3632  0.1983  0.3043
 2147SOL    HW3 8361   2.652   0.103   4.155  0.6046 -0.8623 -0.5097
 2147SOL    MW4 8362   2.609   0.030   4.173  0.4701 -0.4435 -0.0991
 2148SOL     OW 8363   6.298   0.547   0.836 -0.1195 -0.0224 -0.0006
 2148SOL    HW2 8364   6.275   0.459   0.868 -1.3300  0.0123 -0.7044
 2148SOL    HW3 8365   6.326   0.594   0.915  0.5064 -1.0237  0.3886
 2148SOL    MW4 8366   6.298   0.541   0.851  0.3619 -0.1918  0.6968
 2149SOL     OW 8367   1.750   2.587   0.794  0.6709  0.2599  0.0769
 2149SOL    HW2 8368   1.716   2.621   0.711 -1.1261 -0.0487  0.6454
 2149SOL    HW3 8369   1.760   2.664   0.850  0.7574  0.3324 -0.0377
 2149SOL    MW4 8370   1.747   2.602   0.790  0.2633  0.0255  0.2889
 2150SOL     OW 8371   2.446   0.287   5.682 -0.0534 -0.1971  0.0206
 2150SOL    HW2 8372   2.444   0.250   5.594 -1.6297  0.7314 -0.3771
 2150SOL    HW3 8373   2.354   0.307   5.702  0.2808 -0.2235  1.8126
 2150SOL    MW4 8374   2.433   0.285   5.673  0.4458 -0.0339 -0.4003
 2151SOL     OW 8375   4.726   3.399   3.694 -0.4049 -0.3175  0.1800
 2151SOL    HW2 8376   4.632   3.386   3.707 -0.8802 -0.8561 -2.9634
 2151SOL    HW3 8377   4.767   3.350   3.764 -2.4534 -0.9503  1.0188
 2151SOL    MW4 8378   4.719   3.391   3.705  0.2007 -0.2834  0.0381
 2152SOL     OW 8379   4.687   1.219   5.171 -0.4123 -0.1686 -0.1158
 2152SOL    HW2 8380   4.734   1.250   5.094 -0.3213 -0.9254 -0.3617
 2152SOL    HW3 8381   4.622   1.288   5.188 -0.0148  0.3036 -0.4802
 2152SOL    MW4 8382   4.685   1.232   5.163 -0.4816  0.3664  0.3130
 2153SOL     OW 8383   4.734   3.510   5.528  0.0733 -0.1979  0.1787
 2153SOL    HW2 8384   4.775   3.473   5.450  0.5646 -0.5562  0.5962
 2153SOL    HW3 8385   4.659   3.560   5.495  1.1244  0.8838 -0.6436
 2153SOL    MW4 8386   4.729   3.511   5.513 -1.2836 -0.1407  0.3550
 2154SOL     OW 8387   2.311   3.544   3.768  0.1750  0.6144  0.0737
 2154SOL    HW2 8388   2.236   3.581   3.814  0.5328  0.5344  0.7194
 2154SOL    HW3 8389   2.278   3.528   3.679 -0.8401 -0.2779  0.5949
 2154SOL    MW4 8390   2.297   3.547   3.762  0.4347 -0.4066 -0.0647
 2155SOL     OW 8391   3.575   0.297   6.328  0.1417 -0.8905  0.4130
 2155SOL    HW2 8392   3.603   0.349   6.404 -1.8628 -0.9882  1.3016
 2155SOL    HW3 8393   3.656   0.276   6.282  1.2005  1.6438  0.9074
 2155SOL    MW4 8394   3.589   0.301   6.332  0.1469 -0.1959 -0.0583
 2156SOL     OW 8395   3.908   3.273   6.388  0.1041 -0.9242  0.0480
 2156SOL    HW2 8396   3.934   3.358   6.421 -0.4688 -1.2660  1.4274
 2156SOL    HW3 8397   3.990   3.224   6.380  0.3727 -0.4417 -0.2091
 2156SOL    MW4 8398   3.922   3.277   6.391  0.0289  0.0098 -0.1945
 2157SOL     OW 8399   4.421   0.569   2.373 -0.2549  0.7147 -0.9786
 2157SOL    HW2 8400   4.332   0.538   2.357  0.6447 -1.9078 -1.4116
 2157SOL    HW3 8401   4.414   0.623   2.451 -1.9818 -1.0231  0.1750
 2157SOL    MW4 8402   4.409   0.572   2.381  0.1018 -0.3183 -0.1912
 2158SOL     OW 8403   1.179   3.910   4.937 -0.1590  0.5961 -0.4721
 2158SOL    HW2 8404   1.210   3.960   4.861  1.0359  0.2740 -0.2064
 2158SOL    HW3 8405   1.099   3.955   4.964 -0.8493  0.4816 -2.1672
 2158SOL    MW4 8406   1.172   3.922   4.930  0.3064 -0.0547  0.9999
 2159SOL     OW 8407   3.988   3.933   5.575  0.0253  0.2299  0.1365
 2159SOL    HW2 8408   3.913   3.908   5.522  0.7191 -1.4407 -0.1171
 2159SOL    HW3 8409   3.954   4.000   5.634 -1.4594  0.0783 -0.4971
 2159SOL    MW4 8410   3.974   3.938   5.576 -0.1855  0.0695  0.5698
 2160SOL     OW 8411   5.929   1.440   5.576 -0.1913 -0.2384  0.0284
 2160SOL    HW2 8412   5.912   1.517   5.630  0.5092 -0.0445 -0.0175
 2160SOL    HW3 8413   5.983   1.383   5.631 -1.8682 -1.3570  0.5977
 2160SOL    MW4 8414   5.934   1.442   5.590  0.1027  0.4312  0.5776
 2161SOL     OW 8415   3.494   0.587   2.488  0.1263 -0.1656  0.5041
 2161SOL    HW2 8416   3.481   0.541   2.570  0.1489 -0.5491  0.2968
 2161SOL    HW3 8417   3.437   0.541   2.425  2.4566 -1.9658 -0.4587
 2161SOL    MW4 8418   3.485   0.575   2.490 -0.2643  0.1920  0.2879
 2162SOL     OW 8419   1.541   2.783   3.708 -0.1463 -0.2522 -0.0446
 2162SOL    HW2 8420   1.483   2.765   3.782  0.0554  1.1449  0.4802
 2162SOL    HW3 8421   1.483   2.787   3.633 -0.6601  0.4472  0.3765
 2162SOL    MW4 8422   1.526   2.781   3.708 -0.2261  0.2048 -0.2558
 2163SOL     OW 8423   6.162   1.355   2.674  0.0134  0.8877  0.6306
 2163SOL    HW2 8424   6.191   1.361   2.766 -0.8416  0.5341  0.9361
 2163SOL    HW3 8425   6.216   1.286   2.636  0.4571  1.1195  0.8361
 2163SOL    MW4 8426   6.173   1.347   2.681  0.4588  0.5012  0.5440
 2164SOL     OW 8427   4.985   4.628   1.999  0.5265 -0.6549  0.2462
 2164SOL    HW2 8428   5.058   4.680   1.964 -0.7256  0.1580 -1.3107
 2164SOL    HW3 8429   4.934   4.690   2.051  0.7394 -1.1310  1.0303
 2164SOL    MW4 8430   4.988   4.643   2.001  0.0220  0.2373  0.0713
 2165SOL     OW 8431   0.054   2.463   4.233  0.2424 -0.2307  0.3649
 2165SOL    HW2 8432   0.116   2.529   4.203 -0.6843  1.2148  1.5158
 2165SOL    HW3 8433   0.103   2.381   4.229  1.3130  0.4437 -1.4141
 2165SOL    MW4 8434   0.068   2.461   4.228 -0.2348 -0.1484  0.2625
 2166SOL     OW 8435   6.395   3.571   1.692 -1.0427 -0.2444 -0.3994
 2166SOL    HW2 8436   6.396   3.659   1.728  5.2024 -0.7554  1.9260
 2166SOL    HW3 8437   6.335   3.576   1.618 -3.2208  5.0634  1.2687
 2166SOL    MW4 8438   6.388   3.583   1.687 -0.1397 -0.4780  0.1981
 2167SOL     OW 8439   3.825   5.027   0.410 -0.0782  0.5210  0.3867
 2167SOL    HW2 8440   3.784   5.029   0.497 -0.3771 -0.2037  0.2752
 2167SOL    HW3 8441   3.770   5.083   0.356 -0.2873  0.4314  0.5033
 2167SOL    MW4 8442   3.813   5.034   0.414 -0.1612  0.7068  0.4300
 2168SOL     OW 8443   1.150   0.594   0.253  0.2473  0.0195 -0.2338
 2168SOL    HW2 8444   1.212   0.663   0.278  0.7942  0.1563 -1.8035
 2168SOL    HW3 8445   1.113   0.563   0.335  1.8340  0.4826  0.6976
 2168SOL    MW4 8446   1.153   0.599   0.267  0.1242  0.0316 -0.3687
 2169SOL     OW 8447   2.135   6.049   0.097 -0.0361  0.3515  0.2212
 2169SOL    HW2 8448   2.161   5.957   0.094 -1.1987  0.0126  0.0671
 2169SOL    HW3 8449   2.066   6.056   0.032  0.3543  1.4457 -0.0892
 2169SOL    MW4 8450   2.130   6.037   0.088  0.3128  0.0681  0.1480
 2170SOL     OW 8451   5.349   1.445   0.345  0.3759  1.0249  0.0540
 2170SOL    HW2 8452   5.417   1.377   0.345 -1.1586 -0.5723  0.0109
 2170SOL    HW3 8453   5.384   1.513   0.289  1.1493 -0.6048 -1.5500
 2170SOL    MW4 8454   5.363   1.445   0.338  0.5586  0.0961  0.2984
 2171SOL     OW 8455   1.314   3.259   5.140  0.2558 -0.4496  0.8205
 2171SOL    HW2 8456   1.354   3.226   5.220 -1.2754 -0.8110  1.4900
 2171SOL    HW3 8457   1.243   3.316   5.171  0.8723  0.9889 -0.3105
 2171SOL    MW4 8458   1.310   3.262   5.155  0.2381 -0.1923 -0.0269
 2172SOL     OW 8459   3.264   0.722   2.115 -0.0067  0.4152  0.1470
 2172SOL    HW2 8460   3.358   0.739   2.111  0.0700 -0.1490 -0.7198
 2172SOL    HW3 8461   3.225   0.786   2.055 -0.3342  1.5839  1.5550
 2172SOL    MW4 8462   3.271   0.732   2.107 -0.2748  0.4420  0.1328
 2173SOL     OW 8463   4.709   1.985   3.830 -0.7680 -0.3110  0.0727
 2173SOL    HW2 8464   4.712   1.992   3.734  1.1718 -0.4609  0.0757
 2173SOL    HW3 8465   4.690   1.893   3.847 -2.1621 -0.0767 -0.1468
 2173SOL    MW4 8466   4.707   1.974   3.820 -0.2070  0.7197  0.1856
 2174SOL     OW 8467   6.146   3.496   3.730  0.1765 -0.0232  0.3496
 2174SOL    HW2 8468   6.228   3.501   3.682 -0.0228  1.1913  0.1034
 2174SOL    HW3 8469   6.135   3.583   3.768 -0.2267 -0.6272  1.6863
 2174SOL    MW4 8470   6.155   3.508   3.729  0.4224  0.3251 -0.5656
 2175SOL     OW 8471   6.213   4.967   0.581 -0.2210 -1.2250  0.0786
 2175SOL    HW2 8472   6.158   4.912   0.526 -0.0694 -1.3956  0.0980
 2175SOL    HW3 8473   6.290   4.986   0.527  0.0151 -1.5476  0.2979
 2175SOL    MW4 8474   6.216   4.962   0.567  0.0345  0.1686  0.0582
 2176SOL     OW 8475   2.441   3.093   2.959  0.0386  0.1997  0.1017
 2176SOL    HW2 8476   2.511   3.150   2.927  0.2882  1.0375  2.0123
 2176SOL    HW3 8477   2.365   3.151   2.968  0.2370  0.2281  1.8731
 2176SOL    MW4 8478   2.440   3.108   2.956 -0.4615 -0.1878  0.0532
 2177SOL     OW 8479   1.625   3.076   3.767  0.0677 -0.0613  0.2162
 2177SOL    HW2 8480   1.591   2.989   3.789  1.2823 -0.5312  0.3186
 2177SOL    HW3 8481   1.714   3.060   3.736  0.4227  1.1758  0.5355
 2177SOL    MW4 8482   1.632   3.063   3.766  0.0433 -0.1412 -0.1654
 2178SOL     OW 8483   4.114   2.571   0.436  0.2667 -0.2489  0.2195
 2178SOL    HW2 8484   4.139   2.480   0.455  1.9060  0.2502  0.6330
 2178SOL    HW3 8485   4.147   2.587   0.348  0.5262  0.1191  0.3806
 2178SOL    MW4 8486   4.122   2.561   0.427 -0.8862  0.4699  0.1829
 2179SOL     OW 8487   1.265   2.129   5.299  0.1917 -0.2171 -0.0287
 2179SOL    HW2 8488   1.314   2.161   5.375  1.5114 -0.8385 -0.5881
 2179SOL    HW3 8489   1.242   2.208   5.250  0.2004  0.1214  0.5107
 2179SOL    MW4 8490   1.269   2.144   5.303  0.2462  0.0348 -0.1934
 2180SOL     OW 8491   5.732   1.506   4.182  0.3868 -0.3438  0.3206
 2180SOL    HW2 8492   5.686   1.507   4.098 -0.3075 -0.8693  0.6841
 2180SOL    HW3 8493   5.730   1.597   4.211 -0.5585 -0.3793  0.3913
 2180SOL    MW4 8494   5.726   1.518   4.175 -1.0149 -0.0961 -0.0242
 2181SOL     OW 8495   0.044   1.579   5.963 -0.2270 -0.0321 -0.2453
 2181SOL    HW2 8496   0.041   1.633   6.042 -0.1120  0.2837 -0.4559
 2181SOL    HW3 8497   0.135   1.548   5.959 -0.5888 -1.2754  0.5607
 2181SOL    MW4 8498   0.056   1.582   5.973  0.8859 -0.3309  0.2558
 2182SOL     OW 8499   4.880   0.019   6.332  0.4743  0.0681  0.5200
 2182SOL    HW2 8500   4.947   0.009   6.265 -1.6883 -1.8084 -1.5588
 2182SOL    HW3 8501   4.875  -0.067   6.374 -0.6220  0.1853  0.6573
 2182SOL    MW4 8502   4.888   0.006   6.329 -0.2503 -0.0050 -0.4061
 2183SOL     OW 8503   3.256   3.594   4.921  0.1718  0.4336 -0.0495
 2183SOL    HW2 8504   3.195   3.595   4.848 -0.3925  0.8923  0.4207
 2183SOL    HW3 8505   3.323   3.530   4.895  0.4534  1.2129 -1.3360
 2183SOL    MW4 8506   3.257   3.585   4.908 -0.1883 -0.1495  0.1677
 2184SOL     OW 8507   2.771   3.121   1.448  0.4552  0.2112 -0.4793
 2184SOL    HW2 8508   2.728   3.183   1.507 -1.4441 -1.1807 -0.2913
 2184SOL    HW3 8509   2.707   3.050   1.436  2.4123 -1.6169 -0.8662
 2184SOL    MW4 8510   2.757   3.119   1.454  0.3193 -0.1066  0.1767
 2185SOL     OW 8511   5.124   4.256   3.936  0.1401  0.2671  0.3541
 2185SOL    HW2 8512   5.154   4.273   4.025 -0.6840  0.1320  0.6672
 2185SOL    HW3 8513   5.036   4.294   3.932  0.5551  1.1652 -0.7205
 2185SOL    MW4 8514   5.116   4.263   3.947  0.1562  0.0519  0.1137
 2186SOL     OW 8515   1.434   1.266   1.590 -0.5302 -0.1209 -0.2468
 2186SOL    HW2 8516   1.446   1.358   1.569  1.0667 -0.0014  1.0227
 2186SOL    HW3 8517   1.361   1.264   1.651  0.3205  0.4743  0.8051
 2186SOL    MW4 8518   1.426   1.278   1.595  0.2200 -0.3979  0.1233
 2187SOL     OW 8519   1.900   6.422   3.202  0.2147  0.2713  0.7199
 2187SOL    HW2 8520   1.929   6.507   3.169  1.4478  0.3029  1.8156
 2187SOL    HW3 8521   1.951   6.358   3.152  0.5326  0.2360  1.0925
 2187SOL    MW4 8522   1.910   6.425   3.191  0.0937  0.0509 -0.0721
 2188SOL     OW 8523   0.625   4.126   5.277  0.3175  0.0474  0.0638
 2188SOL    HW2 8524   0.537   4.140   5.312  0.6468  0.0778  0.9109
 2188SOL    HW3 8525   0.654   4.044   5.315  1.0367  0.5327  0.6049
 2188SOL    MW4 8526   0.617   4.117   5.286  0.2120 -0.5797  0.2422
 2189SOL     OW 8527   3.588   3.468   0.642 -0.0870  0.2860 -0.2942
 2189SOL    HW2 8528   3.531   3.489   0.568 -0.0594  2.7264  0.2907
 2189SOL    HW3 8529   3.663   3.527   0.632  0.4795 -0.1674  1.0400
 2189SOL    MW4 8530   3.591   3.479   0.631  0.1259  0.1703 -0.1909
 2190SOL     OW 8531   2.693   0.417   1.167 -0.1182 -0.3453  0.6416
 2190SOL    HW2 8532   2.713   0.342   1.111  1.0333 -0.6123  1.3802
 2190SOL    HW3 8533   2.607   0.446   1.137  0.5004 -0.3865 -1.3690
 2190SOL    MW4 8534   2.684   0.411   1.155  0.3008 -0.0089 -0.0736
 2191SOL     OW 8535   6.052   2.768   4.899 -0.0863 -0.5008  0.0090
 2191SOL    HW2 8536   5.967   2.795   4.862 -0.1989 -1.0951 -0.1760
 2191SOL    HW3 8537   6.106   2.748   4.822  0.4387  0.5049  0.1083
 2191SOL    MW4 8538   6.048   2.769   4.884 -0.4206  0.4088  0.0685
 2192SOL     OW 8539   1.397   2.665   2.886 -0.6471  0.1150  0.5152
 2192SOL    HW2 8540   1.462   2.663   2.956 -1.1752 -0.4909  0.9984
 2192SOL    HW3 8541   1.314   2.676   2.930 -0.9340  0.3143 -0.0633
 2192SOL    MW4 8542   1.395   2.666   2.901 -0.1187 -0.1043 -0.3687
 2193SOL     OW 8543   5.103   4.325   3.080 -0.2167 -0.1112 -0.0646
 2193SOL    HW2 8544   5.159   4.344   3.005 -1.4678 -1.7660 -1.4923
 2193SOL    HW3 8545   5.117   4.399   3.139  2.3255  0.2517 -0.9926
 2193SOL    MW4 8546   5.112   4.337   3.078 -0.1612 -0.5339 -0.0997
 2194SOL     OW 8547   2.032   3.080   0.591  0.3325  0.4657  0.0044
 2194SOL    HW2 8548   2.125   3.057   0.591  0.1968 -0.1100  0.3960
 2194SOL    HW3 8549   2.022   3.142   0.663  0.5467  1.1295 -0.5244
 2194SOL    MW4 8550   2.043   3.085   0.600 -0.2727  0.3533 -0.2451
 2195SOL     OW 8551   1.196   4.390   5.329  0.5020  0.2980 -0.2757
 2195SOL    HW2 8552   1.264   4.339   5.372  0.9769  0.4158 -0.8784
 2195SOL    HW3 8553   1.176   4.340   5.249 -1.0373 -0.4273  0.5013
 2195SOL    MW4 8554   1.202   4.376   5.324 -0.3736  0.6320  0.0466
 2196SOL     OW 8555   3.198   2.853   0.455  0.4676 -0.2780  0.0184
 2196SOL    HW2 8556   3.233   2.783   0.400  1.0362 -0.2355  0.3098
 2196SOL    HW3 8557   3.272   2.912   0.468  0.7586 -0.9977  1.9457
 2196SOL    MW4 8558   3.212   2.851   0.450  0.2218  0.3232 -0.1540
 2197SOL     OW 8559   3.259   3.995   4.190  0.1848 -0.2525 -0.4984
 2197SOL    HW2 8560   3.310   3.982   4.270 -2.3073 -0.5177  1.1606
 2197SOL    HW3 8561   3.285   4.081   4.158  0.3542  0.4224  1.3469
 2197SOL    MW4 8562   3.269   4.004   4.197  0.3155 -0.2964  0.9279
 2198SOL     OW 8563   1.362   0.206   2.785  0.1615 -0.1335  0.0475
 2198SOL    HW2 8564   1.356   0.283   2.842 -1.8926  0.7769 -1.2834
 2198SOL    HW3 8565   1.310   0.139   2.830 -0.7547  0.3155 -0.3201
 2198SOL    MW4 8566   1.355   0.207   2.798  0.7028  0.3277 -0.1632
 2199SOL     OW 8567   1.057   0.664   0.752  0.1467  0.4616 -0.2093
 2199SOL    HW2 8568   1.080   0.731   0.688 -2.0251 -0.3034 -1.8902
 2199SOL    HW3 8569   1.063   0.582   0.704 -0.6142 -0.2379  0.8505
 2199SOL    MW4 8570   1.061   0.662   0.737  0.0301 -0.1008 -0.5460
 2200SOL     OW 8571   2.874   0.182   2.409 -0.1265  0.4425  0.1143
 2200SOL    HW2 8572   2.859   0.274   2.433 -0.5716  0.7170 -1.1513
 2200SOL    HW3 8573   2.968   0.169   2.424 -0.2599  0.7755  1.3406
 2200SOL    MW4 8574   2.885   0.192   2.414 -0.5118  0.1947  0.5997
 2201SOL     OW 8575   1.332   1.001   3.706  0.1451 -0.0343 -0.3108
 2201SOL    HW2 8576   1.310   0.921   3.660  0.8458 -0.1448 -0.4636
 2201SOL    HW3 8577   1.421   1.022   3.678  0.1658  0.5076  0.1280
 2201SOL    MW4 8578   1.341   0.993   3.696  0.1379  0.1353  0.0087
 2202SOL     OW 8579   2.181   5.678   3.786 -0.5466  0.0293 -0.3081
 2202SOL    HW2 8580   2.187   5.707   3.695 -1.1508 -0.5784 -0.5475
 2202SOL    HW3 8581   2.088   5.661   3.801 -0.8154  2.3368  1.1427
 2202SOL    MW4 8582   2.170   5.680   3.776  0.3975  0.3909 -0.2562
 2203SOL     OW 8583   1.274   4.704   2.673  0.2542  0.1292  0.5820
 2203SOL    HW2 8584   1.208   4.758   2.630  0.1521 -1.3934 -1.2833
 2203SOL    HW3 8585   1.224   4.645   2.730  0.2434  0.8190  1.3033
 2203SOL    MW4 8586   1.259   4.703   2.675  0.8849  1.0457  1.0022
 2204SOL     OW 8587   1.369   5.307   6.329 -0.1707 -0.0621  0.2233
 2204SOL    HW2 8588   1.455   5.269   6.308 -0.2654 -1.2063  1.7220
 2204SOL    HW3 8589   1.340   5.259   6.406 -1.3754  1.5370  0.8209
 2204SOL    MW4 8590   1.377   5.295   6.336 -0.8374 -0.0328 -0.0330
 2205SOL     OW 8591   4.518   5.100   2.471 -0.1175 -0.6771  1.0078
 2205SOL    HW2 8592   4.604   5.135   2.495 -0.5260 -0.2413  1.9111
 2205SOL    HW3 8593   4.536   5.035   2.403  1.0198 -1.2672  1.8395
 2205SOL    MW4 8594   4.532   5.096   2.465 -0.0052 -0.4393  0.0487
 2206SOL     OW 8595   2.884   5.674   2.096 -0.4512  0.7002  0.3127
 2206SOL    HW2 8596   2.927   5.738   2.039 -1.1026  2.3767  1.6172
 2206SOL    HW3 8597   2.926   5.591   2.075  2.0465  1.9124  0.1489
 2206SOL    MW4 8598   2.895   5.671   2.086  0.4145 -0.3630 -0.2844
 2207SOL     OW 8599   4.807   3.728   5.749  0.2103  0.0885 -0.2670
 2207SOL    HW2 8600   4.899   3.740   5.772 -0.2092  1.4117  0.8616
 2207SOL    HW3 8601   4.809   3.670   5.673  1.9266 -0.5251  0.1909
 2207SOL    MW4 8602   4.819   3.722   5.742  0.8896 -0.2172 -0.5633
 2208SOL     OW 8603   4.862   4.476   3.023  0.2287 -0.2576  0.7597
 2208SOL    HW2 8604   4.942   4.423   3.028 -1.1537 -2.3810  1.6341
 2208SOL    HW3 8605   4.817   4.443   2.945  0.2703  1.1017  0.1268
 2208SOL    MW4 8606   4.867   4.465   3.013  0.3179  0.1702 -0.1542
 2209SOL     OW 8607   0.171   5.377   3.421 -0.4165  0.0932  0.0720
 2209SOL    HW2 8608   0.146   5.428   3.343  0.3026  0.6896  0.2175
 2209SOL    HW3 8609   0.157   5.438   3.494 -1.0602 -0.4552  0.4122
 2209SOL    MW4 8610   0.166   5.392   3.420 -0.2257  0.4989 -0.2488
 2210SOL     OW 8611   4.370   4.578   1.915 -0.3033  0.0137 -0.3647
 2210SOL    HW2 8612   4.302   4.628   1.962  1.3133  1.9859  0.0225
 2210SOL    HW3 8613   4.363   4.490   1.950 -0.6336  0.9000  2.0069
 2210SOL    MW4 8614   4.360   4.573   1.926 -0.1608  0.3310 -0.5038
 2211SOL     OW 8615   4.334   1.372   4.586 -0.0207  0.2335 -0.3337
 2211SOL    HW2 8616   4.379   1.337   4.663 -0.2000 -1.5418 -0.9969
 2211SOL    HW3 8617   4.244   1.343   4.596 -0.3368  1.1036 -0.5802
 2211SOL    MW4 8618   4.328   1.363   4.598  0.0775  0.1753  0.5963
 2212SOL     OW 8619   3.405   4.121   1.913  0.0723  0.4005  0.5413
 2212SOL    HW2 8620   3.482   4.152   1.962 -0.3389 -0.6832  1.9582
 2212SOL    HW3 8621   3.331   4.151   1.965 -0.4480  0.6765 -0.3491
 2212SOL    MW4 8622   3.406   4.129   1.926 -0.8545  0.0820 -0.3748
 2213SOL     OW 8623   3.660   1.508   0.367 -0.0691  0.4654 -1.0325
 2213SOL    HW2 8624   3.634   1.489   0.277 -1.8465  3.2424 -1.2163
 2213SOL    HW3 8625   3.724   1.579   0.360 -1.5325  1.9395 -0.1230
 2213SOL    MW4 8626   3.665   1.515   0.354 -0.1946  0.1958  0.7474
 2214SOL     OW 8627   6.088   3.538   1.168 -0.1593 -0.2240  0.0946
 2214SOL    HW2 8628   6.146   3.613   1.153 -0.7336 -0.2528 -2.8946
 2214SOL    HW3 8629   6.000   3.572   1.152 -0.5888 -1.1680  0.3595
 2214SOL    MW4 8630   6.084   3.553   1.164  0.3112 -0.4752 -0.6365
 2215SOL     OW 8631   3.997   4.049   6.056  0.9070 -0.4013 -0.4203
 2215SOL    HW2 8632   3.907   4.056   6.088  1.4447  1.0806  0.8611
 2215SOL    HW3 8633   4.010   3.955   6.042 -0.8629 -0.6378 -0.7562
 2215SOL    MW4 8634   3.987   4.038   6.058 -0.8164  0.0489 -0.4083
 2216SOL     OW 8635   1.701   1.772   0.221  0.3161  0.6047 -0.3968
 2216SOL    HW2 8636   1.780   1.729   0.188  0.6146 -0.0956  1.1577
 2216SOL    HW3 8637   1.725   1.864   0.230  1.1186  0.3116  0.5353
 2216SOL    MW4 8638   1.715   1.778   0.218 -0.0188  0.1900 -0.5878
 2217SOL     OW 8639   3.731   3.200   2.283  0.0685  0.1714  0.6200
 2217SOL    HW2 8640   3.679   3.232   2.210  1.3603 -0.3562 -0.5927
 2217SOL    HW3 8641   3.795   3.269   2.299 -0.3459  0.3759  1.4048
 2217SOL    MW4 8642   3.733   3.213   2.275 -0.0644 -0.1464  1.0621
 2218SOL     OW 8643   2.125   6.381   0.779  0.0707  0.4084  0.3119
 2218SOL    HW2 8644   2.136   6.393   0.873  2.2739  0.7759  0.0610
 2218SOL    HW3 8645   2.167   6.298   0.760 -0.8861  0.0434 -0.2906
 2218SOL    MW4 8646   2.132   6.372   0.789 -0.2018  0.1282 -0.5009
 2219SOL     OW 8647   0.233   0.908   0.515 -0.4922 -0.3118  0.0273
 2219SOL    HW2 8648   0.314   0.910   0.464 -0.6714 -1.0755 -0.3105
 2219SOL    HW3 8649   0.187   0.831   0.482 -1.0277 -0.2913  0.7182
 2219SOL    MW4 8650   0.238   0.898   0.504 -0.0852  0.4545  0.2639
 2220SOL     OW 8651   0.210   2.005   2.922 -0.1827 -0.6439  0.3081
 2220SOL    HW2 8652   0.120   1.988   2.894 -0.0155 -0.3903 -0.4047
 2220SOL    HW3 8653   0.213   2.100   2.934 -0.1119 -0.6958  0.7049
 2220SOL    MW4 8654   0.198   2.015   2.920  0.2205  0.8348 -0.2996
 2221SOL     OW 8655   1.972   1.433   4.560 -0.9558 -0.0235  0.6026
 2221SOL    HW2 8656   1.883   1.465   4.546 -1.4969 -1.2967  0.9887
 2221SOL    HW3 8657   1.970   1.343   4.527 -0.2562 -0.5997  2.0638
 2221SOL    MW4 8658   1.960   1.425   4.553  0.2735 -0.0731 -0.2840
 2222SOL     OW 8659   3.336   4.539   0.058  0.0555 -0.2079 -0.1398
 2222SOL    HW2 8660   3.312   4.516   0.148  0.9809 -1.7745 -0.2564
 2222SOL    HW3 8661   3.400   4.472   0.033  0.4733  0.7273 -1.6635
 2222SOL    MW4 8662   3.341   4.527   0.067  0.3223  0.4401  0.1492
 2223SOL     OW 8663   6.027   6.010   0.305  0.0958  0.0677  0.3425
 2223SOL    HW2 8664   6.020   5.921   0.270  0.2848  0.5120 -0.8608
 2223SOL    HW3 8665   6.088   6.002   0.378 -0.6345 -0.9580  0.8817
 2223SOL    MW4 8666   6.034   5.997   0.310  0.7617 -0.2909  0.4012
 2224SOL     OW 8667   2.960   0.347   0.977  0.8324  0.0915  0.0900
 2224SOL    HW2 8668   2.970   0.441   0.957 -0.9086  0.0713 -1.1273
 2224SOL    HW3 8669   2.870   0.327   0.950  1.1700 -1.9339  0.3696
 2224SOL    MW4 8670   2.949   0.357   0.971  0.0778  0.1549 -0.0543
 2225SOL     OW 8671   2.211   0.655   4.166  0.0718  0.5211 -0.0252
 2225SOL    HW2 8672   2.188   0.591   4.098 -1.2425  1.2592 -0.3057
 2225SOL    HW3 8673   2.129   0.698   4.187  0.6656  1.0570  1.2803
 2225SOL    MW4 8674   2.197   0.652   4.160  0.1869  0.1425 -0.5317
 2226SOL     OW 8675   0.894   0.028   4.586  0.1326 -0.2525 -0.3386
 2226SOL    HW2 8676   0.809  -0.015   4.581 -1.0485  1.8886 -0.1600
 2226SOL    HW3 8677   0.910   0.040   4.680  1.5740 -2.2927 -0.2773
 2226SOL    MW4 8678   0.885   0.024   4.598  0.1972  0.2291 -0.5104
 2227SOL     OW 8679   2.970   1.658   4.573 -0.3004  0.8026 -0.4913
 2227SOL    HW2 8680   2.989   1.568   4.547 -1.6862  0.3372  0.0086
 2227SOL    HW3 8681   2.985   1.659   4.667 -1.3199  0.7943 -0.3208
 2227SOL    MW4 8682   2.975   1.646   4.582  0.0429  0.2923  0.5051
 2228SOL     OW 8683   4.586   2.405   1.061  0.2440  0.4040  0.3594
 2228SOL    HW2 8684   4.593   2.488   1.014  0.4419  0.5871  0.7088
 2228SOL    HW3 8685   4.570   2.430   1.152  0.5058  0.0637  0.5008
 2228SOL    MW4 8686   4.585   2.419   1.067 -0.2382  0.2032  0.1558
 2229SOL     OW 8687   2.364   4.646   0.507 -0.5547  0.0838 -0.5436
 2229SOL    HW2 8688   2.360   4.613   0.417 -0.5306  0.7988 -0.8124
 2229SOL    HW3 8689   2.338   4.738   0.500 -1.8646 -0.1856  0.3692
 2229SOL    MW4 8690   2.360   4.654   0.494  0.3047 -0.2557 -1.1987
 2230SOL     OW 8691   4.629   3.372   5.239  0.2667  0.2683 -0.1875
 2230SOL    HW2 8692   4.557   3.333   5.188 -1.0812  2.4184 -0.0604
 2230SOL    HW3 8693   4.655   3.448   5.188 -0.3570  1.8417  1.7438
 2230SOL    MW4 8694   4.623   3.377   5.226 -0.2303 -0.7228  0.2852
 2231SOL     OW 8695   2.338   2.194   4.889 -0.8747 -0.2263 -0.6557
 2231SOL    HW2 8696   2.417   2.141   4.885 -0.4693  0.1384  1.4019
 2231SOL    HW3 8697   2.284   2.152   4.955 -0.7952  1.5501  0.6067
 2231SOL    MW4 8698   2.341   2.182   4.897 -0.2444 -0.1407 -0.0835
 2232SOL     OW 8699   2.015   6.031   2.400 -0.5837  0.5303  0.4078
 2232SOL    HW2 8700   2.072   5.971   2.352 -2.5877  0.6547 -2.3740
 2232SOL    HW3 8701   2.069   6.109   2.413  0.2792  0.2568 -1.1895
 2232SOL    MW4 8702   2.030   6.033   2.395 -0.2541 -0.1430  0.5723
 2233SOL     OW 8703   4.586   4.851   6.134  0.1290  0.6307 -0.1876
 2233SOL    HW2 8704   4.675   4.855   6.168 -0.6086  0.5007  1.9026
 2233SOL    HW3 8705   4.579   4.763   6.097  0.4243  0.0753  1.0277
 2233SOL    MW4 8706   4.597   4.840   6.133 -0.6805  0.0762 -0.2423
 2234SOL     OW 8707   4.338   2.102   0.351  0.2946  0.1628  0.1802
 2234SOL    HW2 8708   4.321   2.166   0.281 -0.2470 -0.7293 -0.5248
 2234SOL    HW3 8709   4.327   2.152   0.432  1.6288  1.4005 -0.3430
 2234SOL    MW4 8710   4.335   2.117   0.352 -0.2025 -0.1800  0.1370
 2235SOL     OW 8711   1.504   1.464   1.863 -0.1663  0.7199 -0.2831
 2235SOL    HW2 8712   1.596   1.483   1.881 -0.1916 -0.8887  1.9128
 2235SOL    HW3 8713   1.458   1.485   1.944 -1.3431 -0.8308 -0.4911
 2235SOL    MW4 8714   1.510   1.469   1.876  0.4367  0.2478  0.1089
 2236SOL     OW 8715   6.270   0.260   5.629 -0.2459  0.5468 -0.0391
 2236SOL    HW2 8716   6.256   0.237   5.538  1.0029  0.0455 -0.1280
 2236SOL    HW3 8717   6.189   0.303   5.656 -2.0589 -2.3876 -0.3591
 2236SOL    MW4 8718   6.258   0.263   5.621 -0.1828  0.0347  0.5327
 2237SOL     OW 8719   2.208   5.099   4.327  0.2642 -0.0196 -0.3965
 2237SOL    HW2 8720   2.138   5.149   4.284 -0.7049 -1.3268 -0.4322
 2237SOL    HW3 8721   2.204   5.013   4.284  3.1394  0.3863 -1.6984
 2237SOL    MW4 8722   2.198   5.094   4.316  0.1885 -0.7448  0.0951
 2238SOL     OW 8723   3.096   4.183   1.844  0.7483  0.2570 -0.1213
 2238SOL    HW2 8724   3.125   4.270   1.816  0.0493  1.4182  2.4509
 2238SOL    HW3 8725   3.024   4.200   1.904 -0.6708 -2.2395 -0.9716
 2238SOL    MW4 8726   3.091   4.197   1.848  0.3101  0.3723  0.3669
 2239SOL     OW 8727   3.804   2.670   0.664 -0.2263  0.0875  0.0081
 2239SOL    HW2 8728   3.796   2.746   0.723 -0.5961 -0.5132  0.7508
 2239SOL    HW3 8729   3.829   2.708   0.580 -3.0496  1.3534 -0.3744
 2239SOL    MW4 8730   3.806   2.685   0.661  0.4311 -0.1570  0.6798
 2240SOL     OW 8731   6.270   1.947   6.290  0.4442 -0.3309  0.4869
 2240SOL    HW2 8732   6.177   1.966   6.286  0.9149  2.0450 -0.5698
 2240SOL    HW3 8733   6.287   1.932   6.384 -0.3266  3.5402  1.4362
 2240SOL    MW4 8734   6.260   1.947   6.302 -0.0819 -0.2912 -0.0169
 2241SOL     OW 8735   0.820   4.804   5.775 -0.3710  0.8498  0.2644
 2241SOL    HW2 8736   0.822   4.811   5.871 -1.3813 -0.6207  0.4139
 2241SOL    HW3 8737   0.826   4.711   5.757  1.1096  1.1779 -1.1795
 2241SOL    MW4 8738   0.821   4.793   5.785 -0.7172  0.4287 -0.0646
 2242SOL     OW 8739   2.036   0.938   5.314 -0.2548 -0.0358 -0.5562
 2242SOL    HW2 8740   2.026   1.001   5.243 -1.2673  0.2210 -0.2055
 2242SOL    HW3 8741   1.995   0.858   5.281 -2.5070  0.6264  0.3838
 2242SOL    MW4 8742   2.029   0.936   5.300  0.2828 -0.5269  0.1714
 2243SOL     OW 8743   3.678   5.855   3.524 -0.3382  0.0846  0.4587
 2243SOL    HW2 8744   3.748   5.824   3.581  0.4017  0.6896 -0.1026
 2243SOL    HW3 8745   3.719   5.921   3.468 -1.2083  0.0123 -0.3017
 2243SOL    MW4 8746   3.693   5.860   3.524 -0.1422 -0.1684 -0.2176
 2244SOL     OW 8747   0.383   1.283   4.572  0.4952 -0.1323  0.3572
 2244SOL    HW2 8748   0.305   1.233   4.598  0.6231 -0.6414 -0.2283
 2244SOL    HW3 8749   0.426   1.304   4.655 -0.7015  0.8941  0.7572
 2244SOL    MW4 8750   0.378   1.279   4.587 -0.1735 -0.2650  0.9495
 2245SOL     OW 8751   1.146   4.769   3.957  0.1093  0.3404 -0.2230
 2245SOL    HW2 8752   1.237   4.746   3.937 -0.0156  0.3405 -0.8185
 2245SOL    HW3 8753   1.116   4.818   3.880 -0.1091  1.1516  0.3709
 2245SOL    MW4 8754   1.154   4.773   3.944 -0.4570 -0.5020 -0.6714
 2246SOL     OW 8755   5.137   1.329   3.608  0.4546  0.0709 -0.6446
 2246SOL    HW2 8756   5.049   1.352   3.578  0.0497 -0.1631  0.3224
 2246SOL    HW3 8757   5.129   1.238   3.636 -0.0472  1.0658  3.0650
 2246SOL    MW4 8758   5.124   1.320   3.608  0.2024 -0.5667  0.3011
 2247SOL     OW 8759   5.182   3.548   3.270 -0.2425  0.2700  0.0298
 2247SOL    HW2 8760   5.242   3.615   3.235  0.0272  0.5447  1.0018
 2247SOL    HW3 8761   5.101   3.561   3.220  0.3066  0.2900 -0.8794
 2247SOL    MW4 8762   5.179   3.559   3.259 -0.5296  0.1581 -0.4418
 2248SOL     OW 8763   6.407   3.593   0.568 -0.1205 -0.0169 -0.6446
 2248SOL    HW2 8764   6.329   3.581   0.513  0.4480  0.8491 -1.6832
 2248SOL    HW3 8765   6.372   3.620   0.653 -0.9840 -0.5403 -0.8179
 2248SOL    MW4 8766   6.392   3.595   0.572  0.4235 -0.2337 -0.0660
 2249SOL     OW 8767   1.528   0.976   2.190 -0.7598 -0.0361 -0.3409
 2249SOL    HW2 8768   1.563   1.064   2.179 -3.2603  1.6587  3.1464
 2249SOL    HW3 8769   1.573   0.942   2.268  0.3326 -2.0288 -1.7577
 2249SOL    MW4 8770   1.538   0.983   2.199  1.0457  0.1451  0.4948
 2250SOL     OW 8771   3.980   4.782   1.208  0.1847 -0.2620  0.1024
 2250SOL    HW2 8772   3.889   4.762   1.187 -0.2921  0.0686  1.7649
 2250SOL    HW3 8773   3.976   4.859   1.265  1.6135  0.7601 -1.0906
 2250SOL    MW4 8774   3.968   4.789   1.213  0.4591  0.3228  0.4218
 2251SOL     OW 8775   2.430   2.219   6.079 -0.0963 -0.0275  0.4101
 2251SOL    HW2 8776   2.336   2.211   6.062 -0.7741 -2.5540  4.0430
 2251SOL    HW3 8777   2.440   2.305   6.121 -0.7763  0.2492  0.0147
 2251SOL    MW4 8778   2.419   2.229   6.082  0.0835  0.3649  0.1610
 2252SOL     OW 8779   3.716   4.641   4.472 -0.3441 -0.1166  0.2279
 2252SOL    HW2 8780   3.810   4.624   4.477  0.3745  3.0299 -0.0619
 2252SOL    HW3 8781   3.688   4.653   4.563  0.1837  1.5821  0.1954
 2252SOL    MW4 8782   3.724   4.641   4.484 -0.5201 -0.1673 -0.1477
 2253SOL     OW 8783   4.603   2.354   2.314 -0.3208  0.1255  0.0944
 2253SOL    HW2 8784   4.579   2.444   2.335 -0.6478  0.3314 -1.0961
 2253SOL    HW3 8785   4.687   2.361   2.270  1.7179 -0.5314  3.5557
 2253SOL    MW4 8786   4.611   2.367   2.311  0.2105  0.6222  0.4479
 2254SOL     OW 8787   4.348   5.412   4.725 -0.5121  0.3263 -0.4764
 2254SOL    HW2 8788   4.311   5.354   4.791  0.4417  0.8033  0.5099
 2254SOL    HW3 8789   4.292   5.400   4.648  0.9193 -3.6675 -1.1536
 2254SOL    MW4 8790   4.336   5.403   4.723 -0.0763 -0.2769 -0.0409
 2255SOL     OW 8791   1.328   5.288   2.052  0.0952  0.0826  0.0406
 2255SOL    HW2 8792   1.384   5.336   2.112  0.6068 -1.1353  0.5521
 2255SOL    HW3 8793   1.283   5.357   2.002  0.6260  1.0892  0.9070
 2255SOL    MW4 8794   1.329   5.304   2.053  0.0152  0.3686 -0.2804
 2256SOL     OW 8795   1.768   2.917   5.156  0.6984 -0.0350  0.5518
 2256SOL    HW2 8796   1.788   2.950   5.243  0.8798  1.5031 -0.0251
 2256SOL    HW3 8797   1.677   2.887   5.161  0.1326  1.6042  0.8811
 2256SOL    MW4 8798   1.759   2.917   5.168 -0.1801 -0.0957  0.3765
 2257SOL     OW 8799   5.956   1.712   1.252  0.2594 -0.5998  0.4139
 2257SOL    HW2 8800   5.999   1.715   1.166 -1.1176  0.0061 -0.2819
 2257SOL    HW3 8801   6.024   1.740   1.314  1.2519 -0.9656 -0.4779
 2257SOL    MW4 8802   5.971   1.716   1.249 -0.4029 -0.0435 -0.6437
 2258SOL     OW 8803   4.840   3.159   3.488  0.2591 -0.3157 -0.0530
 2258SOL    HW2 8804   4.783   3.231   3.461 -0.6270 -1.2485 -0.7613
 2258SOL    HW3 8805   4.869   3.119   3.406  0.6752 -0.8225  0.3322
 2258SOL    MW4 8806   4.836   3.163   3.473  0.0958  0.2470  0.2787
 2259SOL     OW 8807   4.444   5.510   0.627  0.1231 -0.3362  0.2053
 2259SOL    HW2 8808   4.411   5.564   0.699 -0.0810  0.6312 -0.5813
 2259SOL    HW3 8809   4.374   5.448   0.608 -0.5440  0.5433 -0.2830
 2259SOL    MW4 8810   4.431   5.509   0.634 -0.4223 -0.2151  0.4297
 2260SOL     OW 8811   0.155   4.004   5.708  0.5837 -1.0002  0.0647
 2260SOL    HW2 8812   0.131   4.094   5.727  1.1872 -1.1274  1.6004
 2260SOL    HW3 8813   0.085   3.951   5.747  1.6572 -1.2580  1.7547
 2260SOL    MW4 8814   0.143   4.009   5.716  0.1354 -0.4550 -0.4014
 2261SOL     OW 8815   4.992   5.604   1.435  0.0421 -0.0183  0.3775
 2261SOL    HW2 8816   5.037   5.550   1.500  3.0229 -0.2467 -1.6488
 2261SOL    HW3 8817   5.035   5.689   1.440 -1.8514  0.9695  0.7776
 2261SOL    MW4 8818   5.004   5.608   1.444  0.3808  0.5388  0.5640
 2262SOL     OW 8819   5.306   4.717   5.118  0.3589  0.3384 -0.9767
 2262SOL    HW2 8820   5.390   4.738   5.159 -0.8342 -0.5033  2.2435
 2262SOL    HW3 8821   5.243   4.776   5.160 -0.8311  0.3442 -2.6605
 2262SOL    MW4 8822   5.309   4.728   5.129  0.1747  0.4415  0.2842
 2263SOL     OW 8823   3.455   3.807   0.525 -0.1352 -0.3839  1.1113
 2263SOL    HW2 8824   3.515   3.830   0.595 -0.0782 -1.6887  1.5306
 2263SOL    HW3 8825   3.511   3.790   0.449 -0.1456  0.3531  0.9293
 2263SOL    MW4 8826   3.470   3.807   0.524 -0.4989  0.2317  0.5978
 2264SOL     OW 8827   0.665   6.046   4.893 -0.1505 -0.2282  0.0808
 2264SOL    HW2 8828   0.594   6.046   4.828  0.8915  0.3478 -1.1089
 2264SOL    HW3 8829   0.719   5.971   4.868  0.7142  0.4891 -0.2649
 2264SOL    MW4 8830   0.663   6.036   4.881 -0.2453  0.3063  0.4891
 2265SOL     OW 8831   0.769   2.994   1.520  0.1526 -0.3007  0.0582
 2265SOL    HW2 8832   0.855   3.035   1.512  0.1641 -0.2698  0.3153
 2265SOL    HW3 8833   0.716   3.059   1.567 -0.0175 -0.3093 -0.1206
 2265SOL    MW4 8834   0.773   3.008   1.525  0.2454 -0.4409 -0.4699
 2266SOL     OW 8835   6.368   6.394   3.358 -0.2034  0.0856 -0.5146
 2266SOL    HW2 8836   6.308   6.358   3.293 -0.2031 -0.1936 -0.3627
 2266SOL    HW3 8837   6.381   6.323   3.421 -1.0786  0.7292  0.4094
 2266SOL    MW4 8838   6.362   6.380   3.357  0.0368 -0.4385  0.5814
 2267SOL     OW 8839   1.024   1.983   3.126  0.2121  0.3867  0.3467
 2267SOL    HW2 8840   1.021   2.042   3.050 -0.2450  0.8676  0.7302
 2267SOL    HW3 8841   1.104   2.008   3.172  0.9941 -0.5435 -0.4711
 2267SOL    MW4 8842   1.034   1.994   3.122 -0.3985 -0.2686 -0.8045
 2268SOL     OW 8843   0.784   3.893   0.948 -0.2354 -0.3243  0.2062
 2268SOL    HW2 8844   0.789   3.944   0.868  0.3450  0.0822  0.4949
 2268SOL    HW3 8845   0.838   3.941   1.011  0.6346 -1.4637  0.3766
 2268SOL    MW4 8846   0.792   3.906   0.946  0.3894  1.0672 -0.2205
 2269SOL     OW 8847   4.369   4.649   6.105  0.0730  1.3491 -0.5567
 2269SOL    HW2 8848   4.421   4.670   6.028  1.7885  1.5227  0.5947
 2269SOL    HW3 8849   4.293   4.601   6.071  0.4358  2.0011 -2.3869
 2269SOL    MW4 8850   4.366   4.645   6.091  0.0707 -0.1822  0.2100
 2270SOL     OW 8851   4.531   1.171   4.177  0.1841 -0.0583 -0.3938
 2270SOL    HW2 8852   4.608   1.194   4.228 -0.3335 -0.2282  0.4755
 2270SOL    HW3 8853   4.467   1.142   4.241 -0.4515 -0.3604 -1.1469
 2270SOL    MW4 8854   4.532   1.170   4.192  0.2175 -0.0353 -0.0499
 2271SOL     OW 8855   1.761   4.245   2.742  0.5217 -0.3778  0.0132
 2271SOL    HW2 8856   1.732   4.190   2.670  0.8984  0.4111 -0.7684
 2271SOL    HW3 8857   1.849   4.274   2.717 -0.4413  2.2581 -0.6590
 2271SOL    MW4 8858   1.769   4.242   2.729  0.4630  0.0898 -0.3342
 2272SOL     OW 8859   4.206   2.910   3.368  0.0154 -0.4419 -0.2935
 2272SOL    HW2 8860   4.181   2.854   3.442  0.0436 -0.6480 -0.4371
 2272SOL    HW3 8861   4.301   2.919   3.376  0.1727 -1.4029 -0.9472
 2272SOL    MW4 8862   4.215   2.904   3.379 -0.3903 -0.0887 -0.0373
 2273SOL     OW 8863   3.378   4.795   5.364  0.5979 -0.0647 -1.0149
 2273SOL    HW2 8864   3.323   4.732   5.410 -1.7620  1.9787 -0.7940
 2273SOL    HW3 8865   3.399   4.752   5.281  0.5991 -1.8016 -0.1592
 2273SOL    MW4 8866   3.373   4.781   5.359 -0.3362  0.7154 -0.4159
 2274SOL     OW 8867   5.086   2.125   4.070  0.0246  0.2865  0.0691
 2274SOL    HW2 8868   5.093   2.213   4.108 -0.4403  0.2444  0.2530
 2274SOL    HW3 8869   5.172   2.109   4.031  0.5397  0.3008  1.1668
 2274SOL    MW4 8870   5.098   2.135   4.069 -0.2023 -0.0494 -0.3745
 2275SOL     OW 8871   0.311   3.400   5.286  0.7404 -0.3178 -0.1804
 2275SOL    HW2 8872   0.357   3.325   5.324  1.6099  0.6252  0.7200
 2275SOL    HW3 8873   0.369   3.474   5.302 -0.1861  0.5872 -0.8579
 2275SOL    MW4 8874   0.324   3.400   5.293  0.2411  0.3817  0.5214
 2276SOL     OW 8875   1.568   5.608   0.142 -0.4296 -0.0416 -0.7978
 2276SOL    HW2 8876   1.505   5.643   0.205  1.3646  2.1636 -0.0807
 2276SOL    HW3 8877   1.524   5.613   0.057 -1.6475  0.2670 -0.1653
 2276SOL    MW4 8878   1.554   5.613   0.139 -0.0231 -0.1915 -0.0931
 2277SOL     OW 8879   5.679   0.741   2.146  0.6872 -0.2893 -0.0190
 2277SOL    HW2 8880   5.730   0.794   2.084 -0.0521  0.0275 -0.3654
 2277SOL    HW3 8881   5.740   0.672   2.173  0.9501 -0.5948 -1.3033
 2277SOL    MW4 8882   5.694   0.739   2.141 -0.0980  0.3505  0.0864
 2278SOL     OW 8883   3.308   6.295   4.439 -0.2431 -0.0612  0.3729
 2278SOL    HW2 8884   3.272   6.305   4.351 -1.0603  1.1985  0.8238
 2278SOL    HW3 8885   3.368   6.221   4.432 -1.4865 -1.0023 -0.8617
 2278SOL    MW4 8886   3.311   6.287   4.426 -0.4021 -0.1367 -0.6008
 2279SOL     OW 8887   2.683   2.657   2.417 -0.2870  0.2713 -0.0294
 2279SOL    HW2 8888   2.714   2.567   2.410 -0.9204  0.0949 -0.7122
 2279SOL    HW3 8889   2.606   2.660   2.361 -0.8738  0.9801  0.7883
 2279SOL    MW4 8890   2.677   2.646   2.409  0.1397  0.4096 -0.2293
 2280SOL     OW 8891   1.160   0.317   1.070 -0.3400 -0.1561 -0.0621
 2280SOL    HW2 8892   1.255   0.312   1.078 -0.3205  0.8673  0.6250
 2280SOL    HW3 8893   1.143   0.408   1.044 -1.1002 -0.5131 -0.8819
 2280SOL    MW4 8894   1.171   0.329   1.068 -0.0261  0.9519  0.1555
 2281SOL     OW 8895   2.231   4.605   1.765  0.0731 -0.7110 -0.2754
 2281SOL    HW2 8896   2.178   4.612   1.844 -0.6771  1.2603 -0.9001
 2281SOL    HW3 8897   2.200   4.526   1.722  0.1568 -1.5445  1.1271
 2281SOL    MW4 8898   2.220   4.596   1.770  0.6180 -0.1478 -0.6116
 2282SOL     OW 8899   1.484   1.457   4.594  0.3079 -0.4656  0.3021
 2282SOL    HW2 8900   1.481   1.553   4.601 -0.1456 -0.1490 -2.9914
 2282SOL    HW3 8901   1.393   1.430   4.588  0.4548 -1.0751  0.7072
 2282SOL    MW4 8902   1.472   1.466   4.594  0.6349 -0.0716  0.3200
 2283SOL     OW 8903   1.889   1.323   0.926  0.3046 -0.1369  0.3497
 2283SOL    HW2 8904   1.983   1.322   0.942  0.2893  0.9520  0.5964
 2283SOL    HW3 8905   1.878   1.276   0.844  0.9468 -1.1485  0.8190
 2283SOL    MW4 8906   1.900   1.317   0.918  0.2628 -0.5526 -0.1624
 2284SOL     OW 8907   3.039   2.506   1.047  0.6301 -0.4467  0.1430
 2284SOL    HW2 8908   3.062   2.470   1.132 -0.4220  0.4044  0.8115
 2284SOL    HW3 8909   2.965   2.564   1.064  0.9371  0.4009 -1.2214
 2284SOL    MW4 8910   3.032   2.509   1.060 -0.2242  0.2499 -0.4748
 2285SOL     OW 8911   0.322   2.947   4.163 -0.0824  0.2643  0.1220
 2285SOL    HW2 8912   0.320   2.985   4.251  0.3585  0.8939 -0.1312
 2285SOL    HW3 8913   0.351   3.019   4.107  0.4176 -0.3574 -0.4247
 2285SOL    MW4 8914   0.325   2.961   4.167  0.2192 -0.5176 -0.1400
 2286SOL     OW 8915   2.390   0.419   1.073  0.3635 -0.2328 -0.1545
 2286SOL    HW2 8916   2.410   0.396   1.163  1.6441  0.7013 -0.1606
 2286SOL    HW3 8917   2.310   0.472   1.078 -0.5110 -1.5372  0.2232
 2286SOL    MW4 8918   2.382   0.423   1.085 -0.0648  0.5660 -0.4011
 2287SOL     OW 8919   5.330   0.243   5.409  0.0507 -0.3897 -0.0546
 2287SOL    HW2 8920   5.278   0.280   5.338  0.6449 -1.7496 -1.2478
 2287SOL    HW3 8921   5.295   0.155   5.421 -0.4837  0.0336  1.8344
 2287SOL    MW4 8922   5.318   0.236   5.401 -0.5757  0.0482 -0.3192
 2288SOL     OW 8923   4.250   0.992   3.321  0.0961 -0.3401 -0.1896
 2288SOL    HW2 8924   4.302   0.914   3.343  0.3292 -0.9536 -2.6147
 2288SOL    HW3 8925   4.284   1.060   3.379  1.0775 -1.6052  0.7958
 2288SOL    MW4 8926   4.261   0.991   3.332 -0.0523 -0.3759  0.4245
 2289SOL     OW 8927   2.831   4.406   5.358 -0.3991  0.0507  0.7380
 2289SOL    HW2 8928   2.837   4.465   5.283 -0.4695 -0.3949  0.3765
 2289SOL    HW3 8929   2.857   4.459   5.433  3.5071 -0.4980 -0.0557
 2289SOL    MW4 8930   2.835   4.421   5.358  0.7155 -0.1516  0.1948
 2290SOL     OW 8931   0.286   0.840   5.843  0.7142 -0.6447  0.4612
 2290SOL    HW2 8932   0.375   0.876   5.845  1.0434 -1.2628 -1.0583
 2290SOL    HW3 8933   0.264   0.838   5.750 -1.3628  0.5521  0.8870
 2290SOL    MW4 8934   0.295   0.844   5.831  0.2645  0.0665 -0.0792
 2291SOL     OW 8935   2.435   1.705   5.641 -0.3430 -0.7637  0.1039
 2291SOL    HW2 8936   2.528   1.720   5.660 -0.1770 -0.6552 -0.7780
 2291SOL    HW3 8937   2.389   1.774   5.688 -0.0932 -1.6332  1.6937
 2291SOL    MW4 8938   2.441   1.716   5.650 -0.0267 -0.1571  0.8308
 2292SOL     OW 8939   4.888   3.735   0.199 -0.6249 -0.6846 -0.3038
 2292SOL    HW2 8940   4.913   3.760   0.289 -1.5414 -1.4676  0.1865
 2292SOL    HW3 8941   4.870   3.819   0.156 -1.1080 -0.3416  0.5351
 2292SOL    MW4 8942   4.889   3.749   0.206 -0.0208  0.3983  0.1009
 2293SOL     OW 8943   3.177   0.278   0.546 -0.5055 -0.5887  0.7037
 2293SOL    HW2 8944   3.174   0.323   0.630 -1.1273 -0.0106  0.3873
 2293SOL    HW3 8945   3.178   0.349   0.481 -1.2517 -1.0201  0.2013
 2293SOL    MW4 8946   3.177   0.294   0.548 -0.0388  0.2226 -0.8598
 2294SOL     OW 8947   4.687   0.353   4.074 -0.0050 -0.0250 -0.3485
 2294SOL    HW2 8948   4.702   0.447   4.072  0.3544 -0.0454 -3.8751
 2294SOL    HW3 8949   4.601   0.341   4.036  0.8439 -1.1746 -2.0390
 2294SOL    MW4 8950   4.678   0.363   4.069  0.3692 -0.0365  0.5340
 2295SOL     OW 8951   3.637   3.481   1.101  0.0509  0.0591  0.0989
 2295SOL    HW2 8952   3.591   3.513   1.024 -1.3531  0.3124  1.0141
 2295SOL    HW3 8953   3.617   3.387   1.104 -0.0966  0.0947  0.2800
 2295SOL    MW4 8954   3.629   3.473   1.091  0.3560  0.0266  0.2104
 2296SOL     OW 8955   4.995   0.333   0.666 -0.5272 -0.1459 -0.5853
 2296SOL    HW2 8956   5.050   0.255   0.669 -0.4887 -0.0785  1.1762
 2296SOL    HW3 8957   5.035   0.394   0.728 -2.4985 -0.0672  0.6813
 2296SOL    MW4 8958   5.007   0.331   0.674  0.0692  0.2458  0.0193
 2297SOL     OW 8959   2.959   1.101   5.085 -0.1236  0.1179  0.4138
 2297SOL    HW2 8960   2.961   1.116   5.179 -1.1288  0.5715  0.3817
 2297SOL    HW3 8961   2.995   1.013   5.073  0.9844  0.4665  1.1121
 2297SOL    MW4 8962   2.964   1.091   5.095  0.1357 -0.2808 -0.5012
 2298SOL     OW 8963   6.317   1.328   2.899  0.3100  0.1683 -0.0070
 2298SOL    HW2 8964   6.375   1.403   2.908 -0.1358  0.5580 -0.3377
 2298SOL    HW3 8965   6.263   1.331   2.978  1.1729 -0.5857  0.6336
 2298SOL    MW4 8966   6.317   1.338   2.911 -0.3167  0.5567 -0.0614
 2299SOL     OW 8967   0.421   0.029   1.672 -0.2880  0.1113  0.0420
 2299SOL    HW2 8968   0.420   0.107   1.728 -1.0756 -0.6790  1.1614
 2299SOL    HW3 8969   0.495   0.044   1.613 -1.4013  2.4674 -0.9084
 2299SOL    MW4 8970   0.431   0.041   1.672 -0.3307 -0.3582 -0.0381
 2300SOL     OW 8971   3.992   1.322   2.435 -0.5285 -0.0436 -1.0045
 2300SOL    HW2 8972   4.083   1.333   2.465 -0.6120  0.2324 -0.8487
 2300SOL    HW3 8973   3.940   1.373   2.498 -0.7162  0.4427 -1.5492
 2300SOL    MW4 8974   3.998   1.330   2.448 -0.0089  0.3891  0.2609
 2301SOL     OW 8975   6.429   2.684   2.521 -0.2443 -0.3036 -0.0686
 2301SOL    HW2 8976   6.476   2.686   2.605  1.7904  2.7062 -1.0715
 2301SOL    HW3 8977   6.389   2.771   2.515  0.0733 -0.2612 -2.3573
 2301SOL    MW4 8978   6.430   2.696   2.531 -0.9360 -0.4750 -0.0049
 2302SOL     OW 8979   5.644   6.336   4.778 -0.0828 -0.3879 -0.2958
 2302SOL    HW2 8980   5.679   6.424   4.792  1.3625 -1.3105  2.8369
 2302SOL    HW3 8981   5.549   6.348   4.779  0.0918  1.1698 -0.3517
 2302SOL    MW4 8982   5.636   6.349   4.780  0.3279  0.1091 -0.5655
 2303SOL     OW 8983   3.519   5.244   1.090 -0.1143 -0.6467  0.2841
 2303SOL    HW2 8984   3.511   5.337   1.109 -1.0294 -0.3903 -1.1761
 2303SOL    HW3 8985   3.598   5.216   1.137 -0.5834  0.5346  1.8516
 2303SOL    MW4 8986   3.529   5.253   1.099 -0.2317  0.5605  0.1036
 2304SOL     OW 8987   3.652   2.966   0.385 -0.3724  0.0558 -0.4112
 2304SOL    HW2 8988   3.733   2.962   0.335  0.2065 -0.2084  0.5116
 2304SOL    HW3 8989   3.631   2.874   0.405  0.1841  0.2063  1.0053
 2304SOL    MW4 8990   3.660   2.953   0.381 -0.2733 -0.3027  0.5257
 2305SOL     OW 8991   2.868   4.601   1.170  0.1301 -0.1187  0.2854
 2305SOL    HW2 8992   2.959   4.627   1.184 -0.3875  1.1524  1.6480
 2305SOL    HW3 8993   2.825   4.680   1.137 -0.7762 -0.2219  1.1478
 2305SOL    MW4 8994   2.874   4.615   1.168  0.1878 -0.0358 -0.1194
 2306SOL     OW 8995   2.315   1.661   2.323  0.7921 -0.1373 -0.3283
 2306SOL    HW2 8996   2.385   1.657   2.258  1.1890  0.1126  0.0819
 2306SOL    HW3 8997   2.355   1.703   2.399  0.9006 -2.1915  0.8131
 2306SOL    MW4 8998   2.329   1.666   2.325 -0.6008  0.1735  0.1445
 2307SOL     OW 8999   4.158   1.140   3.041  0.4361  0.0329 -0.4631
 2307SOL    HW2 9000   4.148   1.182   3.126  1.5112  0.8217 -0.7023
 2307SOL    HW3 9001   4.234   1.183   3.002  0.8800 -1.3590 -1.2044
 2307SOL    MW4 9002   4.167   1.151   3.047 -0.6694  0.1724  0.2574
 2308SOL     OW 9003   5.231   1.518   6.386  0.1650 -0.1073  0.0369
 2308SOL    HW2 9004   5.174   1.552   6.455  2.0763 -1.5732  2.5249
 2308SOL    HW3 9005   5.236   1.424   6.403  2.5695 -0.1720 -0.5721
 2308SOL    MW4 9006   5.224   1.510   6.397 -0.0529  0.7493  0.1616
 2309SOL     OW 9007   3.451   4.678   5.136 -0.2490 -0.0674  0.0551
 2309SOL    HW2 9008   3.521   4.729   5.095 -0.0203 -0.7124 -0.3935
 2309SOL    HW3 9009   3.400   4.644   5.062 -1.0346  0.3816  0.3791
 2309SOL    MW4 9010   3.454   4.680   5.121 -0.2102 -0.3961 -0.3322
 2310SOL     OW 9011   5.546   4.617   1.713  0.2132  0.6968 -0.6861
 2310SOL    HW2 9012   5.518   4.601   1.803  0.3942  0.9038 -0.5925
 2310SOL    HW3 9013   5.562   4.712   1.709  1.1679  0.5478 -0.6618
 2310SOL    MW4 9014   5.544   4.628   1.724  0.1161 -0.0203 -0.8327
 2311SOL     OW 9015   2.273   5.884   2.737 -0.0954 -0.7289  0.8287
 2311SOL    HW2 9016   2.275   5.818   2.668  0.4302 -1.1686  1.2565
 2311SOL    HW3 9017   2.184   5.880   2.771 -0.1026 -1.1310  0.7683
 2311SOL    MW4 9018   2.262   5.875   2.732 -1.1445 -0.2174  0.0833
 2312SOL     OW 9019   3.576   0.863   3.156 -0.2619  0.7109 -0.2403
 2312SOL    HW2 9020   3.610   0.919   3.226  0.3436  0.6384 -0.4728
 2312SOL    HW3 9021   3.636   0.788   3.154 -1.5829 -0.4335  0.6978
 2312SOL    MW4 9022   3.589   0.860   3.165 -0.0764 -0.2457  0.0387
 2313SOL     OW 9023   2.713   5.788   0.420 -0.1434 -0.2077 -0.1004
 2313SOL    HW2 9024   2.800   5.827   0.427 -0.1055 -0.2984 -0.0738
 2313SOL    HW3 9025   2.713   5.717   0.485 -0.5262  0.3494  0.5322
 2313SOL    MW4 9026   2.725   5.784   0.430 -0.1471 -0.3769 -0.3936
 2314SOL     OW 9027   5.524   0.982   5.106  0.0251 -0.4794 -0.0349
 2314SOL    HW2 9028   5.507   0.929   5.028 -0.7156  0.2379 -0.3733
 2314SOL    HW3 9029   5.559   0.920   5.170  1.3811 -0.9631 -1.1674
 2314SOL    MW4 9030   5.527   0.967   5.104 -0.0885  0.0766  0.0664
 2315SOL     OW 9031   3.278   4.079   5.151 -0.3650  0.5080  0.0907
 2315SOL    HW2 9032   3.310   4.017   5.217 -0.3178 -1.2995 -1.5480
 2315SOL    HW3 9033   3.220   4.027   5.096 -1.2975  2.2565 -0.6261
 2315SOL    MW4 9034   3.275   4.064   5.153 -0.0827  0.0434 -0.3680
 2316SOL     OW 9035   4.601   5.750   3.930  0.4874  0.1025  0.6838
 2316SOL    HW2 9036   4.659   5.686   3.887 -0.8554 -1.3169  0.9095
 2316SOL    HW3 9037   4.515   5.708   3.930 -1.5070  3.5908 -2.9706
 2316SOL    MW4 9038   4.598   5.736   3.924  0.2971  0.9613 -0.3828
 2317SOL     OW 9039   2.247   2.899   3.464  0.3861  0.1118 -0.0776
 2317SOL    HW2 9040   2.174   2.898   3.402  0.0713  1.3177  0.2538
 2317SOL    HW3 9041   2.320   2.862   3.414  0.1351  1.0216 -1.1689
 2317SOL    MW4 9042   2.247   2.894   3.449  0.3588  0.2704 -0.1132
 2318SOL     OW 9043   3.332   2.082   6.356 -0.5577  0.1414 -0.1121
 2318SOL    HW2 9044   3.342   2.090   6.451 -0.9239  0.6704 -0.1122
 2318SOL    HW3 9045   3.241   2.108   6.339 -0.5220 -0.0387 -0.5972
 2318SOL    MW4 9046   3.321   2.087   6.366 -0.2902 -0.1057 -0.2789
 2319SOL     OW 9047   1.897   1.234   1.648  0.3045 -0.4840  0.3338
 2319SOL    HW2 9048   1.956   1.307   1.669  0.5383 -0.0657 -1.5414
 2319SOL    HW3 9049   1.855   1.261   1.567 -1.0138 -1.6499  0.6019
 2319SOL    MW4 9050   1.900   1.247   1.640 -0.2475 -0.3417 -0.0636
 2320SOL     OW 9051   1.778   0.078   0.656  0.5371 -0.0528 -0.0751
 2320SOL    HW2 9052   1.865   0.052   0.627 -0.5707 -2.1054 -1.8303
 2320SOL    HW3 9053   1.751   0.146   0.595  0.0751 -0.9787 -0.9184
 2320SOL    MW4 9054   1.786   0.083   0.644 -0.4753 -0.0985 -1.3143
 2321SOL     OW 9055   4.454   5.346   2.288 -0.1745 -0.0725  1.0574
 2321SOL    HW2 9056   4.510   5.269   2.299  0.6638  0.3839  0.0699
 2321SOL    HW3 9057   4.375   5.325   2.339 -0.0712 -1.6814  0.6012
 2321SOL    MW4 9058   4.451   5.333   2.296  0.2851 -0.1121 -0.0515
 2322SOL     OW 9059   3.967   0.916   3.003  0.7488  0.1085  0.0909
 2322SOL    HW2 9060   3.894   0.976   2.985  0.5976 -0.6852 -2.3078
 2322SOL    HW3 9061   4.043   0.972   3.011  0.4077  0.7422 -0.8808
 2322SOL    MW4 9062   3.967   0.931   3.002  0.1831 -0.1565  0.5051
 2323SOL     OW 9063   0.213   4.065   4.871  0.5998 -0.5201 -0.3847
 2323SOL    HW2 9064   0.236   4.117   4.794  1.7664 -3.1223 -1.9391
 2323SOL    HW3 9065   0.122   4.039   4.856 -0.1313  1.2573  0.6038
 2323SOL    MW4 9066   0.204   4.068   4.859  0.6929  0.5963  0.1343
 2324SOL     OW 9067   4.089   1.648   2.504 -0.0801  0.2514 -0.2532
 2324SOL    HW2 9068   4.179   1.660   2.533  1.0638 -4.0922 -1.3303
 2324SOL    HW3 9069   4.095   1.635   2.409 -1.6044 -1.4658 -0.1709
 2324SOL    MW4 9070   4.102   1.648   2.495 -0.4751 -0.1525 -0.0091
 2325SOL     OW 9071   5.160   5.645   0.685 -0.4078 -0.4494  0.0697
 2325SOL    HW2 9072   5.090   5.657   0.621 -0.1540 -0.0949 -0.1466
 2325SOL    HW3 9073   5.143   5.710   0.753  0.0311  0.0360 -0.2726
 2325SOL    MW4 9074   5.149   5.655   0.686 -0.0380 -0.4268  0.0962
 2326SOL     OW 9075   3.611   3.538   4.003 -0.0856  0.3205 -0.0683
 2326SOL    HW2 9076   3.539   3.588   4.043 -1.5045 -1.6693  0.0578
 2326SOL    HW3 9077   3.610   3.454   4.050  2.7651  0.4205  0.3551
 2326SOL    MW4 9078   3.601   3.533   4.015 -0.3839  0.5111 -0.1076
 2327SOL     OW 9079   3.694   3.346   3.661 -0.7869 -0.0655  0.0731
 2327SOL    HW2 9080   3.644   3.322   3.583 -0.8726 -0.9991  0.4059
 2327SOL    HW3 9081   3.638   3.409   3.706  0.0692  2.0083 -1.5506
 2327SOL    MW4 9082   3.680   3.351   3.656 -0.0943  0.5458  0.4833
 2328SOL     OW 9083   2.952   5.834   5.067  0.3379 -0.4188  0.1060
 2328SOL    HW2 9084   2.891   5.840   4.994  0.9152  0.6147 -0.3212
 2328SOL    HW3 9085   2.946   5.919   5.111  1.1122 -0.4731  0.3413
 2328SOL    MW4 9086   2.943   5.846   5.063  0.0901 -0.8260  0.4155
 2329SOL     OW 9087   0.601   5.005   0.427 -0.9041 -0.3407 -0.5343
 2329SOL    HW2 9088   0.543   4.952   0.373  0.5020 -1.0339 -1.4285
 2329SOL    HW3 9089   0.555   5.088   0.438 -3.1208 -1.6731  0.8436
 2329SOL    MW4 9090   0.587   5.009   0.421 -0.9166  0.4851  0.0829
 2330SOL     OW 9091   5.609   1.728   2.485  0.0258 -0.5026 -0.2689
 2330SOL    HW2 9092   5.691   1.774   2.504 -1.1094  2.1485 -1.2474
 2330SOL    HW3 9093   5.600   1.664   2.555  1.1975  1.5787  1.9085
 2330SOL    MW4 9094   5.619   1.726   2.497 -0.2049 -0.5556 -0.8509
 2331SOL     OW 9095   2.729   3.413   0.753 -0.2276 -0.0069 -0.0119
 2331SOL    HW2 9096   2.795   3.349   0.727 -1.1222 -0.1960 -2.0688
 2331SOL    HW3 9097   2.748   3.433   0.844  1.3825 -1.5890  0.0398
 2331SOL    MW4 9098   2.740   3.407   0.761  0.3253 -0.4223  1.0005
 2332SOL     OW 9099   1.817   1.790   1.756  0.4378 -0.2792  0.4306
 2332SOL    HW2 9100   1.814   1.706   1.803  0.9960 -1.2710 -1.2174
 2332SOL    HW3 9101   1.727   1.805   1.727  0.9341 -2.3815 -2.6265
 2332SOL    MW4 9102   1.805   1.781   1.758  0.3863 -0.3334  0.3186
 2333SOL     OW 9103   1.054   0.923   3.455  0.1774 -0.5111 -0.4696
 2333SOL    HW2 9104   1.026   0.843   3.500  2.8767 -0.5941  1.3128
 2333SOL    HW3 9105   1.107   0.891   3.382  0.2918 -0.3616 -0.4523
 2333SOL    MW4 9106   1.058   0.908   3.451  0.2481 -0.3988 -0.3236
 2334SOL     OW 9107   4.525   0.736   3.912 -0.0900 -0.4094 -0.6316
 2334SOL    HW2 9108   4.555   0.730   3.821  0.3978  0.1844 -0.5132
 2334SOL    HW3 9109   4.542   0.826   3.937 -1.2983 -0.2490 -0.3085
 2334SOL    MW4 9110   4.531   0.747   3.903  0.1998  0.0506 -0.7344
 2335SOL     OW 9111   6.119   5.107   5.362 -0.1633 -0.0928  0.3343
 2335SOL    HW2 9112   6.054   5.044   5.331 -0.7507  1.1029 -1.0087
 2335SOL    HW3 9113   6.068   5.185   5.384  0.7078  0.4927  0.3275
 2335SOL    MW4 9114   6.104   5.109   5.361 -0.6002 -0.2081 -0.1786
 2336SOL     OW 9115   3.021   5.318   2.347  0.2192 -0.5337 -0.6032
 2336SOL    HW2 9116   3.016   5.281   2.435  0.8288 -0.3333 -0.4814
 2336SOL    HW3 9117   2.930   5.321   2.317  0.0598 -1.0684 -0.1763
 2336SOL    MW4 9118   3.008   5.314   2.354 -0.0128 -0.1556 -0.3587
 2337SOL     OW 9119   0.652   1.391   0.854  0.2724  0.4550 -0.3236
 2337SOL    HW2 9120   0.722   1.456   0.862  1.3677 -0.5227 -1.4576
 2337SOL    HW3 9121   0.571   1.441   0.859  1.0638  1.7559 -0.0539
 2337SOL    MW4 9122   0.651   1.406   0.856 -0.7427 -0.8834 -0.5097
 2338SOL     OW 9123   4.400   2.443   2.048  0.0667 -0.0494  0.2220
 2338SOL    HW2 9124   4.432   2.361   2.011  0.4650  0.5905 -0.8806
 2338SOL    HW3 9125   4.471   2.506   2.034 -1.3252  1.2186 -1.6036
 2338SOL    MW4 9126   4.413   2.441   2.042 -0.2444 -0.1463 -0.0283
 2339SOL     OW 9127   2.553   5.947   4.118  0.2882  0.0853  0.1758
 2339SOL    HW2 9128   2.617   6.014   4.144 -0.1783  0.7381 -0.2943
 2339SOL    HW3 9129   2.476   5.998   4.092 -0.4590 -0.6967  0.8266
 2339SOL    MW4 9130   2.551   5.963   4.118  0.1462 -0.5477 -0.9441
 2340SOL     OW 9131   3.388   5.502   2.557 -0.3523  0.1542  0.3574
 2340SOL    HW2 9132   3.408   5.492   2.650  2.4142 -0.7934 -0.2490
 2340SOL    HW3 9133   3.398   5.415   2.520 -1.7023  0.4549 -0.8423
 2340SOL    MW4 9134   3.392   5.489   2.564  0.1911 -0.1650  0.6877
 2341SOL     OW 9135   5.157   1.586   4.121  0.0695 -0.3501 -0.0222
 2341SOL    HW2 9136   5.174   1.648   4.050 -0.8379  0.5538  0.5208
 2341SOL    HW3 9137   5.133   1.505   4.077  1.8470 -0.5243 -0.7530
 2341SOL    MW4 9138   5.156   1.584   4.106 -0.1409  0.0973  0.3724
 2342SOL     OW 9139   0.669   1.690   6.209 -0.3000  0.4699 -0.1738
 2342SOL    HW2 9140   0.731   1.712   6.140 -2.1090  0.5714 -1.8662
 2342SOL    HW3 9141   0.683   1.596   6.223  1.4300  0.8345  0.7859
 2342SOL    MW4 9142   0.679   1.680   6.201 -0.3877 -0.1529 -0.3423
 2343SOL     OW 9143   0.825   3.219   1.924  0.1175  0.2229 -0.1711
 2343SOL    HW2 9144   0.758   3.174   1.976 -0.0701  0.9439  0.2314
 2343SOL    HW3 9145   0.863   3.283   1.984  1.6024 -0.5729 -0.2175
 2343SOL    MW4 9146   0.821   3.221   1.938 -0.3433 -0.3796 -0.0583
 2344SOL     OW 9147   0.452   1.401   2.680 -0.1490  0.2107  0.5577
 2344SOL    HW2 9148   0.545   1.423   2.678 -0.0894 -0.0760  0.1435
 2344SOL    HW3 9149   0.449   1.308   2.659 -0.2556 -0.6479  3.7377
 2344SOL    MW4 9150   0.464   1.392   2.677  0.1823  0.0092  0.1214
 2345SOL     OW 9151   4.620   1.226   6.350  0.4749  0.1071  0.9257
 2345SOL    HW2 9152   4.606   1.311   6.308  0.4015  2.3524  4.9466
 2345SOL    HW3 9153   4.715   1.214   6.347  0.3093 -1.3332 -2.2735
 2345SOL    MW4 9154   4.631   1.236   6.344  0.2248 -0.1399 -0.3662
 2346SOL     OW 9155   6.132   1.994   4.508 -0.1764 -0.2089  0.2751
 2346SOL    HW2 9156   6.215   2.012   4.551 -0.9137  2.2427  0.8385
 2346SOL    HW3 9157   6.068   2.049   4.555 -1.5458  0.3522 -2.0738
 2346SOL    MW4 9158   6.134   2.004   4.520 -0.2295 -0.6954 -0.2901
 2347SOL     OW 9159   3.508   6.080   4.411 -0.1301  0.1460 -0.5727
 2347SOL    HW2 9160   3.479   5.991   4.431  1.2990 -0.2306  0.0165
 2347SOL    HW3 9161   3.603   6.076   4.422 -0.2230  2.3349  1.8834
 2347SOL    MW4 9162   3.517   6.068   4.415  0.4211  0.1600 -0.4408
 2348SOL     OW 9163   6.000   5.984   6.267  1.0195 -0.1963  0.3038
 2348SOL    HW2 9164   6.073   6.011   6.323  1.8931  2.0482 -1.7535
 2348SOL    HW3 9165   6.026   6.011   6.179 -2.0037  0.0853 -0.6185
 2348SOL    MW4 9166   6.013   5.991   6.263  0.5451 -0.2034 -0.7600
 2349SOL     OW 9167   3.610   0.877   2.874  0.0788 -0.4919  0.2765
 2349SOL    HW2 9168   3.680   0.942   2.871  1.4658 -1.9633 -0.9756
 2349SOL    HW3 9169   3.582   0.876   2.966  0.2387  1.5855  0.3910
 2349SOL    MW4 9170   3.616   0.885   2.886 -0.2931  0.1944  0.2142
 2350SOL     OW 9171   3.118   1.994   1.607 -0.0693 -0.5530 -0.1736
 2350SOL    HW2 9172   3.164   2.065   1.653  0.8080 -0.1261 -1.6399
 2350SOL    HW3 9173   3.111   1.924   1.672 -0.6736  0.7444  1.2204
 2350SOL    MW4 9174   3.123   1.994   1.622 -0.0050 -0.2155  0.1314
 2351SOL     OW 9175   1.083   0.924   6.097  0.6788  0.4710  0.0803
 2351SOL    HW2 9176   1.138   0.871   6.155  1.0747  0.6790 -0.0972
 2351SOL    HW3 9177   0.994   0.914   6.131  0.1273 -3.0497 -1.8953
 2351SOL    MW4 9178   1.079   0.916   6.109 -0.0455 -0.4860  0.5445
 2352SOL     OW 9179   3.861   3.572   4.051 -0.0699  0.0068  0.9487
 2352SOL    HW2 9180   3.895   3.483   4.043  1.2899  0.6273 -1.2150
 2352SOL    HW3 9181   3.772   3.568   4.017 -1.1506 -1.0312  3.6610
 2352SOL    MW4 9182   3.854   3.560   4.046  0.4216  0.5163  0.0502
 2353SOL     OW 9183   3.913   5.580   1.970  0.4924  0.2665 -0.3107
 2353SOL    HW2 9184   3.879   5.494   1.994  0.4201  0.1265 -0.9063
 2353SOL    HW3 9185   3.936   5.572   1.878 -1.0645  1.3765 -0.8219
 2353SOL    MW4 9186   3.912   5.568   1.961  0.3743 -1.0536  0.4380
 2354SOL     OW 9187   5.448   5.510   3.389 -0.3098  0.0796 -0.3027
 2354SOL    HW2 9188   5.479   5.601   3.387 -0.6580  0.2120  0.2993
 2354SOL    HW3 9189   5.478   5.474   3.305 -0.4588  0.8417 -0.6972
 2354SOL    MW4 9190   5.456   5.517   3.377 -0.5564  0.1437 -0.5644
 2355SOL     OW 9191   2.409   2.080   0.419  0.0821  0.3567  0.3078
 2355SOL    HW2 9192   2.377   2.049   0.504 -0.0087 -2.1746 -0.5740
 2355SOL    HW3 9193   2.373   2.018   0.356  3.0689 -0.0069 -1.2129
 2355SOL    MW4 9194   2.400   2.068   0.422 -0.2721  0.3009  0.1865
 2356SOL     OW 9195   3.068   3.205   3.854 -0.4044 -0.1099  0.1825
 2356SOL    HW2 9196   3.099   3.158   3.776  1.0307 -1.4691  1.4829
 2356SOL    HW3 9197   2.981   3.169   3.870 -0.5621 -0.0915 -0.5693
 2356SOL    MW4 9198   3.061   3.194   3.845 -0.5630 -0.4408  1.0282
 2357SOL     OW 9199   5.885   3.226   1.912  0.4101  0.0168  0.3621
 2357SOL    HW2 9200   5.826   3.184   1.849  0.7663 -0.7063  0.4966
 2357SOL    HW3 9201   5.885   3.318   1.888  0.6905 -0.2778 -0.8332
 2357SOL    MW4 9202   5.877   3.232   1.901  0.0347  0.4638  0.4917
 2358SOL     OW 9203   3.409   2.441   4.818 -0.3837  0.4957 -0.3394
 2358SOL    HW2 9204   3.316   2.450   4.835 -0.7578  1.5719 -2.5632
 2358SOL    HW3 9205   3.432   2.520   4.768  1.2240 -0.7208 -1.6413
 2358SOL    MW4 9206   3.400   2.453   4.814  0.3516 -0.0282 -0.3121
 2359SOL     OW 9207   3.137   4.066   0.735  0.3963 -0.0760 -0.1145
 2359SOL    HW2 9208   3.164   4.128   0.667 -2.4231  0.0640 -1.2374
 2359SOL    HW3 9209   3.147   3.980   0.694 -1.2798  0.0072 -0.7653
 2359SOL    MW4 9210   3.142   4.063   0.720 -0.5964 -0.0311  0.3812
 2360SOL     OW 9211   4.514   4.065   3.233  0.2605  0.3409  1.0226
 2360SOL    HW2 9212   4.503   4.152   3.271 -0.1128  0.2547  1.1114
 2360SOL    HW3 9213   4.456   4.009   3.284 -0.2298  0.2217  0.3522
 2360SOL    MW4 9214   4.505   4.069   3.245  0.1127 -0.0195  0.0555
 2361SOL     OW 9215   4.411   3.053   1.921  0.2727 -0.2733 -0.1191
 2361SOL    HW2 9216   4.341   2.996   1.953 -0.0020 -0.4869 -1.0633
 2361SOL    HW3 9217   4.439   3.102   1.998 -2.3219  1.3547 -0.0747
 2361SOL    MW4 9218   4.405   3.052   1.935 -0.1805 -0.0528 -0.2870
 2362SOL     OW 9219   4.998   6.087   5.440  0.1259  0.4823  0.5177
 2362SOL    HW2 9220   5.054   6.114   5.367 -0.1631  0.9528  0.4664
 2362SOL    HW3 9221   4.909   6.091   5.406  0.0975 -1.2405  0.2942
 2362SOL    MW4 9222   4.994   6.091   5.426  0.4869 -0.0153 -0.3873
 2363SOL     OW 9223   2.092   0.263   5.427  0.1170 -0.5794 -0.2455
 2363SOL    HW2 9224   2.098   0.345   5.379  1.8718 -1.4732 -1.6785
 2363SOL    HW3 9225   1.998   0.241   5.425 -0.2761  0.9998 -0.4458
 2363SOL    MW4 9226   2.080   0.271   5.421 -0.0060 -0.6864  0.5010
 2364SOL     OW 9227   5.252   2.476   1.319  0.0456  0.6943  0.5662
 2364SOL    HW2 9228   5.284   2.505   1.233 -1.4685  0.8054  0.0216
 2364SOL    HW3 9229   5.209   2.393   1.302  1.2238 -0.1507  1.5349
 2364SOL    MW4 9230   5.251   2.469   1.306 -0.3618  0.3456 -0.1135
 2365SOL     OW 9231   4.267   4.677   1.445 -0.0788  0.0852 -0.4641
 2365SOL    HW2 9232   4.308   4.620   1.380 -0.1090 -2.3090  1.4761
 2365SOL    HW3 9233   4.189   4.630   1.474  0.7061  0.2798  2.3327
 2365SOL    MW4 9234   4.262   4.663   1.441  0.9309  0.6459  0.5862
 2366SOL     OW 9235   1.494   2.502   1.551  0.5440  0.3828 -0.4416
 2366SOL    HW2 9236   1.523   2.429   1.607  1.1196  1.7423  1.1019
 2366SOL    HW3 9237   1.474   2.573   1.612 -0.8062  1.2796 -1.8546
 2366SOL    MW4 9238   1.495   2.502   1.566  0.1643 -0.3122 -0.6469
 2367SOL     OW 9239   3.818   5.558   1.022  0.2830 -0.2897  0.1559
 2367SOL    HW2 9240   3.864   5.480   1.052 -0.1852 -0.2119  1.1091
 2367SOL    HW3 9241   3.790   5.538   0.933  0.7197 -0.9598  0.1668
 2367SOL    MW4 9242   3.821   5.545   1.014 -0.1776 -0.2086 -0.5654
 2368SOL     OW 9243   4.241   1.645   4.949 -0.3689  0.0499 -0.0460
 2368SOL    HW2 9244   4.331   1.652   4.917 -1.0128  1.9368 -1.6752
 2368SOL    HW3 9245   4.233   1.555   4.980  2.5937  0.2998  1.8525
 2368SOL    MW4 9246   4.252   1.634   4.949 -0.3526  0.0496  0.3029
 2369SOL     OW 9247   4.833   5.272   3.865 -0.2173  0.0346  0.4324
 2369SOL    HW2 9248   4.832   5.325   3.944 -2.3506 -0.2570  0.6526
 2369SOL    HW3 9249   4.804   5.185   3.893 -2.9171  0.4001 -0.8973
 2369SOL    MW4 9250   4.829   5.267   3.879 -0.3677  0.2328  0.0581
 2370SOL     OW 9251   2.656   0.992   3.255 -0.2954  0.4716  0.1866
 2370SOL    HW2 9252   2.751   0.985   3.241 -0.3305  0.7630 -0.2136
 2370SOL    HW3 9253   2.647   1.056   3.325 -0.1791  0.1115  0.5331
 2370SOL    MW4 9254   2.668   1.000   3.262 -0.0588 -0.5775 -0.3041
 2371SOL     OW 9255   2.450   0.216   3.154 -0.1238 -0.3525  0.1595
 2371SOL    HW2 9256   2.481   0.278   3.089 -2.2533 -0.3103 -0.8995
 2371SOL    HW3 9257   2.509   0.141   3.146  0.2744  0.0702 -1.0896
 2371SOL    MW4 9258   2.462   0.214   3.145 -0.8699 -0.3523 -0.0037
 2372SOL     OW 9259   3.506   1.947   0.539  0.6940 -0.1304 -0.5872
 2372SOL    HW2 9260   3.490   1.902   0.622  1.4514  0.0176 -0.3487
 2372SOL    HW3 9261   3.475   1.886   0.472 -0.8344  0.1506 -0.1732
 2372SOL    MW4 9262   3.500   1.933   0.541 -0.0253 -0.2841  0.1630
 2373SOL     OW 9263   6.288   3.656   2.010  0.6374 -0.0275  0.7809
 2373SOL    HW2 9264   6.324   3.722   1.951 -0.7550  0.6058  0.6054
 2373SOL    HW3 9265   6.281   3.701   2.094 -0.0566 -0.0257  0.7274
 2373SOL    MW4 9266   6.292   3.671   2.013 -0.0624  1.0285 -0.3724
 2374SOL     OW 9267   4.997   1.640   5.056  0.3112 -0.1528  0.5218
 2374SOL    HW2 9268   4.982   1.572   5.122  1.8808 -1.4216 -0.3492
 2374SOL    HW3 9269   5.015   1.719   5.106  0.6672 -0.8973  1.5974
 2374SOL    MW4 9270   4.997   1.641   5.071 -0.0772 -0.0142  0.3293
 2375SOL     OW 9271   0.701   2.335   5.467 -0.4213 -0.2394  0.3762
 2375SOL    HW2 9272   0.793   2.318   5.446 -0.5686  1.3715 -1.9404
 2375SOL    HW3 9273   0.653   2.271   5.415 -0.6606  1.1169 -1.1589
 2375SOL    MW4 9274   0.707   2.324   5.457 -0.4986 -0.2309 -0.5333
 2376SOL     OW 9275   3.426   3.302   1.772  0.0937 -0.2373  0.5131
 2376SOL    HW2 9276   3.405   3.283   1.680 -0.3563  0.5652  0.4385
 2376SOL    HW3 9277   3.507   3.352   1.768  1.3798 -2.1811  0.7208
 2376SOL    MW4 9278   3.434   3.306   1.759  0.0451  0.1626 -0.1426
 2377SOL     OW 9279   1.202   5.647   0.191 -0.3206  0.0841 -0.2598
 2377SOL    HW2 9280   1.134   5.645   0.123  1.3025 -1.5819 -1.9500
 2377SOL    HW3 9281   1.205   5.557   0.225  0.8200  0.2032  0.0032
 2377SOL    MW4 9282   1.193   5.635   0.187 -0.1288 -0.0821 -0.1033
 2378SOL     OW 9283   5.986   0.835   1.233  0.6660 -0.5717 -0.1893
 2378SOL    HW2 9284   5.954   0.833   1.324 -1.1900 -1.9829 -0.8195
 2378SOL    HW3 9285   5.992   0.929   1.213  2.4487 -0.1781  1.7759
 2378SOL    MW4 9286   5.982   0.847   1.243  0.2499  0.2313 -0.3782
 2379SOL     OW 9287   1.496   5.894   5.586 -0.3043 -0.1437 -0.6817
 2379SOL    HW2 9288   1.482   5.967   5.526 -0.9371  1.0724  0.8631
 2379SOL    HW3 9289   1.569   5.921   5.641 -0.0249 -1.0317 -0.5977
 2379SOL    MW4 9290   1.504   5.907   5.586 -0.2717 -0.0015  0.1884
 2380SOL     OW 9291   2.657   4.962   1.956  0.6002 -0.6481 -0.2323
 2380SOL    HW2 9292   2.653   4.870   1.929 -2.4684 -0.4088 -0.8835
 2380SOL    HW3 9293   2.698   5.007   1.882 -0.8549 -1.0850 -1.3493
 2380SOL    MW4 9294   2.662   4.956   1.943 -0.1122 -1.0034 -1.1331
 2381SOL     OW 9295   0.931   4.225   5.900 -0.7261 -0.1311 -0.0958
 2381SOL    HW2 9296   0.958   4.204   5.810 -2.4159 -1.8613 -0.2496
 2381SOL    HW3 9297   0.915   4.319   5.898 -1.9779 -0.3217 -1.9986
 2381SOL    MW4 9298   0.933   4.235   5.888 -0.1115  0.2624 -0.1262
 2382SOL     OW 9299   3.613   0.973   3.892  0.3446  0.2633 -0.8601
 2382SOL    HW2 9300   3.706   0.959   3.910  0.5190  3.0654  0.9477
 2382SOL    HW3 9301   3.609   0.990   3.798  1.7935  0.8249 -0.8372
 2382SOL    MW4 9302   3.625   0.973   3.882  0.0190  0.5793  0.1360
 2383SOL     OW 9303   6.402   2.847   4.766 -0.3608 -0.2662  0.0092
 2383SOL    HW2 9304   6.448   2.786   4.825 -0.8566  0.3053  1.0178
 2383SOL    HW3 9305   6.400   2.801   4.682 -0.6759 -1.6329  0.7205
 2383SOL    MW4 9306   6.408   2.833   4.763 -0.1183  0.3043 -0.5770
 2384SOL     OW 9307   5.265   4.561   6.151  0.1799  0.6274  0.1500
 2384SOL    HW2 9308   5.233   4.513   6.226  0.4162 -0.2543 -0.3017
 2384SOL    HW3 9309   5.323   4.628   6.187  0.3877  0.1310  0.7441
 2384SOL    MW4 9310   5.268   4.564   6.165  0.8061 -0.2693  0.3279
 2385SOL     OW 9311   4.702   0.650   4.668 -0.0703 -0.0795 -0.1475
 2385SOL    HW2 9312   4.702   0.615   4.579 -1.5224 -0.2119 -0.1267
 2385SOL    HW3 9313   4.759   0.591   4.717 -1.2928 -1.5664 -0.4428
 2385SOL    MW4 9314   4.709   0.638   4.662 -0.3962  0.0738  0.1954
 2386SOL     OW 9315   1.593   4.034   3.025  0.1116 -0.0618 -0.0825
 2386SOL    HW2 9316   1.505   4.072   3.020 -0.0361 -0.4719 -0.7024
 2386SOL    HW3 9317   1.652   4.109   3.022 -0.2235  0.2505  0.8241
 2386SOL    MW4 9318   1.589   4.048   3.024  0.2821  0.1007  0.2357
 2387SOL     OW 9319   0.121   2.361   0.615  0.0287 -1.0699  0.0644
 2387SOL    HW2 9320   0.026   2.370   0.622  0.1510 -0.4704  1.2518
 2387SOL    HW3 9321   0.134   2.295   0.547 -1.1819  0.3510 -1.6436
 2387SOL    MW4 9322   0.110   2.353   0.607 -0.8639  0.1564  0.5558
 2388SOL     OW 9323   1.965   1.935   5.581  0.0627  0.6734 -0.0240
 2388SOL    HW2 9324   1.962   1.853   5.531  2.2884 -0.3996  1.3945
 2388SOL    HW3 9325   1.876   1.947   5.613 -0.3933 -1.0235 -0.5456
 2388SOL    MW4 9326   1.953   1.926   5.579 -0.2015  0.1710 -0.0857
 2389SOL     OW 9327   5.452   1.260   3.292  0.1989 -0.0227 -0.0801
 2389SOL    HW2 9328   5.486   1.349   3.280 -1.1525  0.5226  0.0241
 2389SOL    HW3 9329   5.472   1.216   3.209  0.7505  0.4066 -0.1838
 2389SOL    MW4 9330   5.459   1.266   3.279  0.5351  0.8741 -0.3518
 2390SOL     OW 9331   2.458   0.970   4.120  0.2561 -0.0425 -0.4244
 2390SOL    HW2 9332   2.461   0.874   4.116 -1.1867 -0.1304  0.0179
 2390SOL    HW3 9333   2.550   0.997   4.126  0.6199 -1.4885  1.2184
 2390SOL    MW4 9334   2.471   0.961   4.120  0.7521  0.2082 -0.5303
 2391SOL     OW 9335   5.673   4.146   2.686  0.1878 -0.4010 -0.1874
 2391SOL    HW2 9336   5.632   4.062   2.663 -0.9343 -0.4757  1.8153
 2391SOL    HW3 9337   5.747   4.122   2.740  0.5170 -0.1219 -0.5108
 2391SOL    MW4 9338   5.677   4.132   2.690  0.3521 -0.7302 -0.4760
 2392SOL     OW 9339   4.781   4.059   2.523  0.1187 -0.5574  0.4625
 2392SOL    HW2 9340   4.746   4.009   2.596  1.3670  1.0723  2.2964
 2392SOL    HW3 9341   4.805   4.143   2.561 -0.2195  0.8049 -2.0890
 2392SOL    MW4 9342   4.780   4.064   2.537 -0.6497  0.1496  0.1739
 2393SOL     OW 9343   6.037   3.928   6.279 -0.3797  0.9362  0.5205
 2393SOL    HW2 9344   6.131   3.927   6.264 -0.1407 -1.4927  1.7223
 2393SOL    HW3 9345   6.010   4.017   6.256  1.7994  1.0528 -2.0102
 2393SOL    MW4 9346   6.046   3.940   6.274 -0.2820  0.3735  0.4882
 2394SOL     OW 9347   2.000   5.536   1.434 -0.1256 -0.5995  0.7200
 2394SOL    HW2 9348   2.067   5.531   1.502 -0.6894 -2.9288  1.1825
 2394SOL    HW3 9349   1.946   5.458   1.448 -1.5415  0.0012 -1.0790
 2394SOL    MW4 9350   2.002   5.525   1.445 -0.0257  0.8865  0.4803
 2395SOL     OW 9351   2.952   3.786   2.803 -0.2809  0.6218  0.1040
 2395SOL    HW2 9352   3.042   3.808   2.830  0.0874  0.0550 -0.6199
 2395SOL    HW3 9353   2.942   3.831   2.719 -0.2096 -0.3744 -0.4459
 2395SOL    MW4 9354   2.963   3.795   2.795 -0.3781 -0.0800  0.0962
 2396SOL     OW 9355   6.068   5.480   1.964 -0.0129 -0.0447  0.8250
 2396SOL    HW2 9356   6.104   5.397   1.934 -1.6808 -0.7057  0.5541
 2396SOL    HW3 9357   6.078   5.477   2.059 -0.9633 -1.0090  0.9043
 2396SOL    MW4 9358   6.074   5.469   1.973 -0.2591  0.3299  0.1565
 2397SOL     OW 9359   4.101   2.899   0.109  0.4888 -0.0601 -0.1909
 2397SOL    HW2 9360   4.141   2.965   0.166 -0.5962 -0.0363  0.5692
 2397SOL    HW3 9361   4.155   2.900   0.030  0.7867  1.4069 -0.0085
 2397SOL    MW4 9362   4.113   2.908   0.106 -0.3732 -0.3158  0.3259
 2398SOL     OW 9363   0.294   3.961   6.246 -0.0047 -0.0764  0.2179
 2398SOL    HW2 9364   0.349   3.947   6.169 -0.1492  0.7181 -0.0421
 2398SOL    HW3 9365   0.344   3.923   6.319  0.8657  0.5789 -0.0206
 2398SOL    MW4 9366   0.308   3.954   6.246 -0.8002  0.7644  0.7869
 2399SOL     OW 9367   0.248   2.678   3.637  0.3169  0.0447 -0.2139
 2399SOL    HW2 9368   0.161   2.679   3.595  0.4051 -0.2264 -0.4071
 2399SOL    HW3 9369   0.249   2.598   3.688 -0.0903  0.7609  0.9654
 2399SOL    MW4 9370   0.236   2.668   3.638 -0.4920 -0.2069  0.1905
 2400SOL     OW 9371   0.120   0.588   0.682  0.2578  0.1927  0.1166
 2400SOL    HW2 9372   0.117   0.509   0.736  2.6522 -0.9117 -1.1953
 2400SOL    HW3 9373   0.081   0.656   0.736  0.8168 -1.2569  2.4758
 2400SOL    MW4 9374   0.115   0.587   0.696  0.3069  0.2964 -0.0362
 2401SOL     OW 9375   0.673   4.364   2.472 -0.7954  0.3318 -0.5322
 2401SOL    HW2 9376   0.628   4.418   2.406 -0.4735 -1.0843 -1.9818
 2401SOL    HW3 9377   0.602   4.322   2.520 -1.0988 -0.8021 -1.8851
 2401SOL    MW4 9378   0.658   4.366   2.469  0.5178  0.5132  0.6720
 2402SOL     OW 9379   5.023   0.906   0.039 -0.1340  0.3029  0.2790
 2402SOL    HW2 9380   5.055   0.894   0.129  3.0853 -1.6492 -0.9187
 2402SOL    HW3 9381   5.009   0.817   0.007 -0.9165  0.9469 -1.2785
 2402SOL    MW4 9382   5.026   0.893   0.047 -0.3425 -0.4066 -0.1673
 2403SOL     OW 9383   4.204   5.559   1.104  0.3705 -0.2287 -0.0423
 2403SOL    HW2 9384   4.108   5.555   1.108  0.3772 -0.0428  0.4186
 2403SOL    HW3 9385   4.228   5.494   1.038 -0.0678 -0.3700 -0.0688
 2403SOL    MW4 9386   4.195   5.550   1.096  0.1380 -0.1030 -0.3049
 2404SOL     OW 9387   3.823   4.572   0.270  0.0566  0.4476 -0.0272
 2404SOL    HW2 9388   3.851   4.557   0.180 -1.6127  2.2061 -0.8920
 2404SOL    HW3 9389   3.875   4.647   0.299  1.5607 -0.9178  1.0062
 2404SOL    MW4 9390   3.834   4.580   0.262 -0.7005  0.3415 -0.3456
 2405SOL     OW 9391   0.132   6.420   3.620 -0.2374 -0.2178 -0.1585
 2405SOL    HW2 9392   0.219   6.458   3.620  0.3944 -1.5508  1.5803
 2405SOL    HW3 9393   0.079   6.481   3.670  0.7046 -1.3353  2.3659
 2405SOL    MW4 9394   0.136   6.433   3.626  0.5969  0.5096 -0.4651
 2406SOL     OW 9395   2.549   5.028   5.077  0.3934 -0.3664  0.4756
 2406SOL    HW2 9396   2.537   4.938   5.049 -0.3349  0.0792 -0.7148
 2406SOL    HW3 9397   2.508   5.031   5.164  1.2641 -1.3886  0.9421
 2406SOL    MW4 9398   2.542   5.017   5.085 -0.3222 -0.0346  0.5111
 2407SOL     OW 9399   2.900   4.945   4.828  0.3427  0.2218  0.6212
 2407SOL    HW2 9400   2.850   5.011   4.779  0.7545 -0.0467 -0.1795
 2407SOL    HW3 9401   2.834   4.881   4.855  0.0813  0.4670  0.5752
 2407SOL    MW4 9402   2.884   4.945   4.825  0.0476 -0.7281  0.1901
 2408SOL     OW 9403   6.028   5.018   4.639  0.2880  0.2017 -0.2262
 2408SOL    HW2 9404   5.965   5.084   4.670  1.8852  1.2154  1.0096
 2408SOL    HW3 9405   6.002   5.002   4.548 -2.6476 -0.5448  0.6255
 2408SOL    MW4 9406   6.016   5.025   4.631  0.1864  0.1778  0.1380
 2409SOL     OW 9407   2.710   1.624   4.458 -0.1735 -0.4209 -0.2135
 2409SOL    HW2 9408   2.635   1.674   4.489  0.9977  1.1894  0.1192
 2409SOL    HW3 9409   2.786   1.668   4.495  0.9131 -3.5610  1.7423
 2409SOL    MW4 9410   2.710   1.636   4.467  0.1048  0.2636 -0.0943
 2410SOL     OW 9411   1.656   1.326   3.533 -0.2382  0.2123 -0.4022
 2410SOL    HW2 9412   1.599   1.392   3.494  0.2559  1.3952  0.7991
 2410SOL    HW3 9413   1.633   1.327   3.626  0.1058 -1.0035 -0.2810
 2410SOL    MW4 9414   1.645   1.334   3.540 -0.5662 -0.6266 -0.2945
 2411SOL     OW 9415   0.302   2.476   2.841  0.3731 -0.1839  0.8714
 2411SOL    HW2 9416   0.296   2.511   2.930  0.0529 -3.1250  2.0961
 2411SOL    HW3 9417   0.390   2.440   2.835  1.6014  2.7479 -1.2441
 2411SOL    MW4 9418   0.312   2.476   2.852  0.0138 -0.1070 -0.5811
 2412SOL     OW 9419   2.354   0.728   4.808 -0.3267 -0.1111 -0.3973
 2412SOL    HW2 9420   2.334   0.660   4.744  0.7697 -0.9152  0.0700
 2412SOL    HW3 9421   2.403   0.683   4.876 -1.1379  0.8043  0.8342
 2412SOL    MW4 9422   2.358   0.713   4.808  0.6412 -0.4507  0.2039
 2413SOL     OW 9423   1.881   2.769   1.450  0.3724 -0.4178 -0.5279
 2413SOL    HW2 9424   1.832   2.771   1.532 -2.6321 -0.0836 -2.1673
 2413SOL    HW3 9425   1.907   2.677   1.440  1.7193 -0.2717  1.2424
 2413SOL    MW4 9426   1.878   2.757   1.460  0.1092  0.3919  0.0739
 2414SOL     OW 9427   3.555   3.481   2.689 -0.2262  0.1987 -0.5322
 2414SOL    HW2 9428   3.648   3.468   2.673 -0.3447 -0.0454 -1.0619
 2414SOL    HW3 9429   3.548   3.570   2.722  0.1975  0.2133 -0.4781
 2414SOL    MW4 9430   3.566   3.491   2.691  0.4349 -0.3118  0.5594
 2415SOL     OW 9431   0.024   4.178   4.275 -0.3010  0.7815 -0.2377
 2415SOL    HW2 9432   0.100   4.209   4.323 -0.3600 -1.0447  1.1131
 2415SOL    HW3 9433   0.059   4.145   4.193  0.2353  0.7992 -0.0193
 2415SOL    MW4 9434   0.038   4.178   4.270  0.7233 -0.3197 -0.1436
 2416SOL     OW 9435   0.215   6.126   2.440 -0.3525  0.3278 -0.1873
 2416SOL    HW2 9436   0.227   6.221   2.448  2.2541 -0.0419  1.1243
 2416SOL    HW3 9437   0.222   6.093   2.530  1.0889 -1.3159 -0.8578
 2416SOL    MW4 9438   0.217   6.134   2.453 -0.1336  0.0560  0.2733
 2417SOL     OW 9439   0.449   0.731   3.474 -0.0898 -0.0142  0.6630
 2417SOL    HW2 9440   0.429   0.756   3.564 -1.1119  0.2706  0.3776
 2417SOL    HW3 9441   0.514   0.795   3.445  0.6809 -0.4590  1.3702
 2417SOL    MW4 9442   0.455   0.743   3.482 -0.2995 -0.6063  0.0438
 2418SOL     OW 9443   3.554   4.539   0.981  0.2033  0.3643  0.1827
 2418SOL    HW2 9444   3.580   4.598   1.052  2.9288 -0.9723  0.4188
 2418SOL    HW3 9445   3.483   4.487   1.018  0.0478  1.2214  1.1440
 2418SOL    MW4 9446   3.548   4.540   0.995  0.7394  0.1192  0.4994
 2419SOL     OW 9447   2.054   5.341   0.529 -0.2804  0.6505  0.2661
 2419SOL    HW2 9448   2.143   5.343   0.492 -0.7422  1.6281 -0.8788
 2419SOL    HW3 9449   2.001   5.388   0.464 -1.3983  1.2188  1.5561
 2419SOL    MW4 9450   2.059   5.347   0.515  0.1164 -0.2096  0.0456
 2420SOL     OW 9451   1.413   4.617   2.048 -0.9217  0.1222  0.4901
 2420SOL    HW2 9452   1.327   4.607   2.009 -0.7052  3.3400 -1.1107
 2420SOL    HW3 9453   1.417   4.708   2.077  1.5308 -0.2452  1.6431
 2420SOL    MW4 9454   1.402   4.628   2.047  0.1663 -0.7094  0.9065
 2421SOL     OW 9455   1.888   3.086   3.697  0.1705  0.5468  0.0245
 2421SOL    HW2 9456   1.931   3.035   3.766  0.4444 -0.3274 -0.7686
 2421SOL    HW3 9457   1.908   3.177   3.718 -0.5629  0.3756  1.6344
 2421SOL    MW4 9458   1.896   3.091   3.709 -0.1602  0.4720 -0.5439
 2422SOL     OW 9459   2.241   5.444   0.884 -0.0671  0.2262  0.2625
 2422SOL    HW2 9460   2.302   5.426   0.812 -0.2874 -0.5271  0.2592
 2422SOL    HW3 9461   2.270   5.386   0.954 -1.0394 -0.4506  0.1132
 2422SOL    MW4 9462   2.253   5.434   0.884  0.0661 -0.0568 -0.1090
 2423SOL     OW 9463   2.871   4.585   1.445  0.1051  0.2361  0.3205
 2423SOL    HW2 9464   2.879   4.593   1.350 -1.0202 -0.1849  0.1688
 2423SOL    HW3 9465   2.781   4.555   1.459 -0.3269  1.9584  1.6270
 2423SOL    MW4 9466   2.860   4.582   1.434  0.0608  0.4039  0.4200
 2424SOL     OW 9467   5.089   5.972   1.837 -0.0195 -0.1029  0.3872
 2424SOL    HW2 9468   5.069   5.926   1.919 -2.2415 -0.4285 -0.2588
 2424SOL    HW3 9469   5.077   6.064   1.858  0.1448 -0.1276  0.5986
 2424SOL    MW4 9470   5.085   5.978   1.851  0.5025 -0.2357 -0.0012
 2425SOL     OW 9471   6.200   0.650   4.653 -0.2849 -0.9167 -0.3755
 2425SOL    HW2 9472   6.213   0.559   4.626  0.3206 -0.7342 -0.7222
 2425SOL    HW3 9473   6.156   0.644   4.738  0.7613 -1.5631  0.1418
 2425SOL    MW4 9474   6.196   0.637   4.660  0.7784  0.2619  0.1140
 2426SOL     OW 9475   4.943   6.384   5.124 -0.7280  0.3241  0.0209
 2426SOL    HW2 9476   4.874   6.398   5.188 -0.6638 -2.2595  0.7792
 2426SOL    HW3 9477   5.001   6.320   5.164  1.0914  0.9906 -1.3751
 2426SOL    MW4 9478   4.941   6.377   5.138 -0.6268 -0.4148 -0.0974
 2427SOL     OW 9479   1.837   1.690   5.512 -0.2982 -0.0948 -0.0020
 2427SOL    HW2 9480   1.870   1.600   5.518 -0.3370 -0.2887 -2.0539
 2427SOL    HW3 9481   1.742   1.681   5.513 -0.4039 -0.4624 -3.4302
 2427SOL    MW4 9482   1.829   1.677   5.513  0.1560  0.1965 -0.5806
 2428SOL     OW 9483   2.167   6.127   4.956 -0.0924 -0.4676  0.2039
 2428SOL    HW2 9484   2.204   6.045   4.924 -0.7001 -0.1304 -1.4498
 2428SOL    HW3 9485   2.089   6.141   4.903 -0.1303  1.0604  0.6064
 2428SOL    MW4 9486   2.162   6.118   4.945 -0.0628 -0.7195  0.1192
 2429SOL     OW 9487   4.833   2.560   5.031  0.2763 -0.1668 -0.0424
 2429SOL    HW2 9488   4.897   2.490   5.040 -0.8122 -0.9996  1.6701
 2429SOL    HW3 9489   4.854   2.623   5.100 -1.0762 -0.7687  0.9735
 2429SOL    MW4 9490   4.844   2.559   5.041  0.2722 -0.0695 -0.3240
 2430SOL     OW 9491   6.310   0.318   1.906  0.1880 -0.3299  0.1408
 2430SOL    HW2 9492   6.271   0.247   1.956  2.2063 -0.2367  1.9483
 2430SOL    HW3 9493   6.236   0.377   1.887 -0.9858 -1.3943  1.2334
 2430SOL    MW4 9494   6.295   0.317   1.910 -0.1701  0.1023  0.5643
 2431SOL     OW 9495   2.453   4.655   5.032 -0.3175  0.0715  0.2982
 2431SOL    HW2 9496   2.469   4.561   5.036  2.1728  0.1743 -3.0901
 2431SOL    HW3 9497   2.387   4.666   4.963 -1.6897  0.8330  1.6438
 2431SOL    MW4 9498   2.446   4.644   5.023  0.1004  0.0384  0.3896
 2432SOL     OW 9499   2.370   1.960   6.185 -0.0023  0.2968 -0.0587
 2432SOL    HW2 9500   2.422   2.037   6.163  0.5393  0.2282  0.9454
 2432SOL    HW3 9501   2.380   1.950   6.280 -0.3480 -0.7963 -0.1243
 2432SOL    MW4 9502   2.378   1.969   6.195 -0.3553  0.3366  0.0605
 2433SOL     OW 9503   1.637   1.473   6.213 -0.6041  0.3797  0.3561
 2433SOL    HW2 9504   1.650   1.402   6.149 -1.5365 -1.2138  1.8480
 2433SOL    HW3 9505   1.642   1.553   6.161  2.3310 -0.6262 -1.1585
 2433SOL    MW4 9506   1.640   1.474   6.198 -0.0314  0.4673  1.2138
 2434SOL     OW 9507   3.255   0.613   4.124 -0.7764  0.5231 -0.1970
 2434SOL    HW2 9508   3.248   0.663   4.205 -0.5685  0.8965 -0.4075
 2434SOL    HW3 9509   3.168   0.619   4.085 -0.7700  0.6703 -0.1900
 2434SOL    MW4 9510   3.242   0.621   4.129 -0.4141  0.3242  0.5460
 2435SOL     OW 9511   0.409   5.179   2.876 -0.2995  0.2045 -0.1538
 2435SOL    HW2 9512   0.492   5.141   2.906 -0.1369  0.5883 -0.1129
 2435SOL    HW3 9513   0.382   5.236   2.948 -1.2473 -0.8821  0.3899
 2435SOL    MW4 9514   0.417   5.181   2.890  0.7747 -0.8515  0.6362
 2436SOL     OW 9515   0.731   3.241   0.463 -1.0987  0.1165  0.6307
 2436SOL    HW2 9516   0.754   3.211   0.551  2.2960 -0.8825 -0.4461
 2436SOL    HW3 9517   0.726   3.161   0.411 -0.7688  0.8110 -0.5067
 2436SOL    MW4 9518   0.734   3.226   0.468  0.0600  0.0472  0.2016
 2437SOL     OW 9519   1.222   2.212   1.408 -0.4168 -0.3879 -0.6027
 2437SOL    HW2 9520   1.268   2.296   1.395 -0.6900  0.0198  0.9121
 2437SOL    HW3 9521   1.242   2.162   1.329  0.1078  0.9437 -1.3545
 2437SOL    MW4 9522   1.230   2.217   1.396 -0.1505 -0.0914 -0.1397
 2438SOL     OW 9523   4.727   6.044   5.354 -0.0981  0.4239 -0.3545
 2438SOL    HW2 9524   4.705   6.130   5.390  0.8274  0.0302  1.2546
 2438SOL    HW3 9525   4.709   5.983   5.426  0.0997 -0.6281 -1.1735
 2438SOL    MW4 9526   4.722   6.047   5.368 -0.3117 -0.2026  0.7057
 2439SOL     OW 9527   5.603   4.620   3.476  0.3812  0.2670  0.1781
 2439SOL    HW2 9528   5.633   4.705   3.442 -0.6745  1.0490  1.1119
 2439SOL    HW3 9529   5.521   4.604   3.430  1.3879 -1.0966 -1.2219
 2439SOL    MW4 9530   5.596   4.629   3.465 -0.4166 -0.1734 -0.1924
 2440SOL     OW 9531   2.205   1.845   1.985 -0.1459  0.1009  0.4807
 2440SOL    HW2 9532   2.263   1.920   1.996  0.2024 -0.2973  1.5322
 2440SOL    HW3 9533   2.149   1.847   2.063 -1.7930  0.6724 -0.6828
 2440SOL    MW4 9534   2.205   1.855   1.997 -0.2192 -0.1805  0.7636
 2441SOL     OW 9535   3.665   1.968   5.039 -0.2283  0.5733 -0.1515
 2441SOL    HW2 9536   3.659   1.988   4.946  1.6114 -0.3040 -0.4951
 2441SOL    HW3 9537   3.574   1.966   5.069 -0.8622  0.6415 -1.9693
 2441SOL    MW4 9538   3.652   1.971   5.031  0.0336  0.8312  0.3668
 2442SOL     OW 9539   3.579   0.768   3.589 -0.0911 -0.5064  0.5761
 2442SOL    HW2 9540   3.518   0.696   3.577 -0.0319 -0.3923 -0.5697
 2442SOL    HW3 9541   3.547   0.836   3.529  1.2672 -0.5316 -0.2133
 2442SOL    MW4 9542   3.567   0.768   3.580  0.0695  0.3561 -0.0232
 2443SOL     OW 9543   6.356   1.089   4.530 -0.0647 -0.2364  0.4880
 2443SOL    HW2 9544   6.394   1.151   4.469 -1.8225 -1.6040 -2.1804
 2443SOL    HW3 9545   6.282   1.136   4.569  1.2972  0.7719  1.9650
 2443SOL    MW4 9546   6.351   1.103   4.527  0.0062 -0.0905 -0.2070
 2444SOL     OW 9547   2.654   0.375   3.021  1.0958 -0.0681  0.2654
 2444SOL    HW2 9548   2.712   0.327   2.962  1.2521  1.8614 -1.2213
 2444SOL    HW3 9549   2.678   0.467   3.010 -1.4977  0.7099  0.4296
 2444SOL    MW4 9550   2.665   0.380   3.012 -0.3560  0.3610  0.0791
 2445SOL     OW 9551   4.655   3.971   3.485  0.2777  0.4419  0.0218
 2445SOL    HW2 9552   4.651   4.000   3.394  1.4939 -0.1516 -0.2534
 2445SOL    HW3 9553   4.577   3.917   3.497  0.7991 -0.6132 -1.1044
 2445SOL    MW4 9554   4.644   3.967   3.475  0.0308 -0.4701 -0.4468
 2446SOL     OW 9555   0.619   0.582   0.676  0.3561 -0.7657  0.0896
 2446SOL    HW2 9556   0.529   0.597   0.648 -0.4077 -0.6347  2.4120
 2446SOL    HW3 9557   0.646   0.665   0.716  0.2458 -1.7806  2.4541
 2446SOL    MW4 9558   0.611   0.595   0.678  0.1047 -0.3923  0.3625
 2447SOL     OW 9559   2.034   1.015   1.523  0.2260 -0.1608 -0.3451
 2447SOL    HW2 9560   1.986   1.063   1.590  0.1591 -2.4070  1.3644
 2447SOL    HW3 9561   1.967   0.992   1.457  0.1025  1.2488 -0.7467
 2447SOL    MW4 9562   2.019   1.018   1.523 -0.1799  0.3053  0.5194
 2448SOL     OW 9563   3.544   1.576   0.856 -0.1642 -0.5413 -0.2222
 2448SOL    HW2 9564   3.571   1.487   0.832  0.3353 -0.4437 -0.0471
 2448SOL    HW3 9565   3.614   1.632   0.822 -0.2928 -0.2484 -0.0139
 2448SOL    MW4 9566   3.557   1.572   0.848 -0.5162  0.1972 -0.8161
 2449SOL     OW 9567   1.383   2.526   0.485 -0.4596  0.0375 -0.1977
 2449SOL    HW2 9568   1.322   2.598   0.503 -3.3196 -1.9194 -1.2804
 2449SOL    HW3 9569   1.398   2.485   0.569  0.3555  1.2258  0.2622
 2449SOL    MW4 9570   1.377   2.530   0.498 -0.5032 -0.6606  0.1108
 2450SOL     OW 9571   1.963   5.734   5.021 -0.2010 -0.1963  0.3710
 2450SOL    HW2 9572   1.999   5.704   5.105  2.0609 -1.2034 -0.8874
 2450SOL    HW3 9573   1.936   5.654   4.977 -1.7833  0.3629  0.2434
 2450SOL    MW4 9574   1.964   5.720   5.026 -0.6841  0.1614  0.5747
 2451SOL     OW 9575   0.546   5.907   3.590  0.0399  0.1521  0.2000
 2451SOL    HW2 9576   0.538   5.967   3.516 -1.6100 -0.3699 -0.0745
 2451SOL    HW3 9577   0.540   5.964   3.667  1.7192  0.6890 -0.0194
 2451SOL    MW4 9578   0.544   5.923   3.591  0.2667 -0.1294  0.2404
 2452SOL     OW 9579   5.706   2.662   5.937  0.0935  0.9089  0.0651
 2452SOL    HW2 9580   5.797   2.673   5.965 -0.2203  0.1299  1.5421
 2452SOL    HW3 9581   5.654   2.699   6.009 -0.7693 -0.6547  0.2930
 2452SOL    MW4 9582   5.711   2.668   5.950  0.0860 -0.0254  0.4707
 2453SOL     OW 9583   3.318   5.598   5.186  0.7919 -0.2524 -0.1253
 2453SOL    HW2 9584   3.392   5.628   5.133 -0.5312  0.9661 -1.3653
 2453SOL    HW3 9585   3.241   5.613   5.131 -0.4337 -0.9841  1.3247
 2453SOL    MW4 9586   3.317   5.604   5.172  0.2873  0.6956 -0.3725
 2454SOL     OW 9587   1.514   1.799   0.953  0.2969 -0.1683 -0.3247
 2454SOL    HW2 9588   1.586   1.766   0.899  0.6167 -0.8012  0.4681
 2454SOL    HW3 9589   1.471   1.865   0.898  1.6025  0.3772 -0.7428
 2454SOL    MW4 9590   1.518   1.804   0.939  0.6683 -0.3401  0.0306
 2455SOL     OW 9591   5.700   4.954   1.537  0.0640  0.2580 -0.2732
 2455SOL    HW2 9592   5.620   4.935   1.585  0.6350 -1.2521  0.1412
 2455SOL    HW3 9593   5.713   5.048   1.549 -1.6498  0.5371 -0.3895
 2455SOL    MW4 9594   5.691   4.964   1.545 -0.5604 -0.0933 -0.0023
 2456SOL     OW 9595   6.143   5.759   2.152  0.1058 -0.2195  0.2557
 2456SOL    HW2 9596   6.133   5.755   2.057  0.8133 -0.5444  0.1890
 2456SOL    HW3 9597   6.082   5.828   2.180 -0.6764 -0.6521 -0.3452
 2456SOL    MW4 9598   6.134   5.768   2.143  0.0881  0.0085  0.2143
 2457SOL     OW 9599   1.290   1.263   0.941  0.0021  0.0457  0.1940
 2457SOL    HW2 9600   1.223   1.242   1.007 -1.9609  2.1843 -0.9618
 2457SOL    HW3 9601   1.290   1.187   0.883 -0.7956 -0.3811  0.7278
 2457SOL    MW4 9602   1.281   1.250   0.942  0.5398 -0.1400  0.4236
 2458SOL     OW 9603   1.620   3.425   4.875 -0.1709 -0.7216  0.2534
 2458SOL    HW2 9604   1.526   3.420   4.862 -0.2522 -3.0822  1.2268
 2458SOL    HW3 9605   1.653   3.340   4.845  1.6680  0.0800 -0.1453
 2458SOL    MW4 9606   1.612   3.413   4.869 -0.1541 -0.0799 -0.4047
 2459SOL     OW 9607   2.749   0.800   3.557 -0.7533 -0.2864 -0.2468
 2459SOL    HW2 9608   2.700   0.788   3.639 -0.4787  0.9978  0.1158
 2459SOL    HW3 9609   2.685   0.838   3.497 -0.6010 -0.0093 -0.2323
 2459SOL    MW4 9610   2.734   0.803   3.560 -0.5533  0.2923 -0.1379
 2460SOL     OW 9611   0.545   0.141   3.853  0.5282  0.5108  0.3998
 2460SOL    HW2 9612   0.628   0.132   3.805 -1.2257  0.3603 -2.9533
 2460SOL    HW3 9613   0.526   0.235   3.851 -0.3052  0.3339 -0.6741
 2460SOL    MW4 9614   0.554   0.152   3.846  0.2375  0.1621 -0.0433
 2461SOL     OW 9615   2.907   0.863   0.913 -0.2940  0.4208  0.0015
 2461SOL    HW2 9616   2.985   0.908   0.881 -1.0638  1.4569 -0.4915
 2461SOL    HW3 9617   2.892   0.899   1.000 -0.2098  0.1864  0.1159
 2461SOL    MW4 9618   2.915   0.873   0.920 -0.2302  0.1840  0.6308
 2462SOL     OW 9619   3.961   3.881   1.660  0.4262  0.7296  0.1339
 2462SOL    HW2 9620   3.995   3.967   1.635  1.2498 -0.4622 -3.3301
 2462SOL    HW3 9621   3.867   3.894   1.664  0.5351  1.8207 -0.2431
 2462SOL    MW4 9622   3.953   3.894   1.658 -0.0639  0.0053 -0.0322
 2463SOL     OW 9623   3.438   5.857   1.661  0.4134  0.1484  0.4226
 2463SOL    HW2 9624   3.421   5.771   1.699  0.1813  0.0957  0.2008
 2463SOL    HW3 9625   3.512   5.843   1.602  0.3982  0.1068  0.4132
 2463SOL    MW4 9626   3.445   5.844   1.658 -0.1040 -0.0764  0.0422
 2464SOL     OW 9627   2.796   5.690   0.890 -0.0449  0.1052  0.4840
 2464SOL    HW2 9628   2.872   5.748   0.890 -0.1220  0.2314 -0.5066
 2464SOL    HW3 9629   2.721   5.749   0.880 -0.0615 -0.1902 -1.5328
 2464SOL    MW4 9630   2.796   5.706   0.889 -0.4767  0.4569  0.1602
 2465SOL     OW 9631   3.319   4.016   2.341 -0.3762 -0.1663  0.2074
 2465SOL    HW2 9632   3.252   4.069   2.298 -0.3353  1.0520  1.5317
 2465SOL    HW3 9633   3.337   3.945   2.280 -2.4059 -0.1737 -0.4592
 2465SOL    MW4 9634   3.313   4.014   2.327 -0.0608  0.0675 -0.2683
 2466SOL     OW 9635   3.281   0.401   0.827 -0.5763 -0.1192  0.0551
 2466SOL    HW2 9636   3.376   0.398   0.815 -0.6370 -0.0072 -0.4899
 2466SOL    HW3 9637   3.266   0.472   0.890 -0.2058 -1.0517  1.2345
 2466SOL    MW4 9638   3.292   0.410   0.834  0.2979 -0.0565  0.3777
 2467SOL     OW 9639   1.668   4.421   1.758 -0.4898 -0.1462  0.0765
 2467SOL    HW2 9640   1.694   4.482   1.826 -1.8454  1.5952 -0.8787
 2467SOL    HW3 9641   1.750   4.389   1.721  0.2658  1.0976  0.6353
 2467SOL    MW4 9642   1.682   4.424   1.762  0.8564 -0.3598 -1.0651
 2468SOL     OW 9643   3.381   2.589   2.752 -0.2692  0.6703  0.0661
 2468SOL    HW2 9644   3.467   2.583   2.793  0.0392 -1.8040 -0.7757
 2468SOL    HW3 9645   3.391   2.655   2.684  0.7796  0.8856  0.4216
 2468SOL    MW4 9646   3.393   2.597   2.749 -0.3798  0.1826  0.0134
 2469SOL     OW 9647   5.837   5.293   3.473 -0.0480  0.6315 -0.3854
 2469SOL    HW2 9648   5.764   5.232   3.461 -0.3332  1.2889 -2.3046
 2469SOL    HW3 9649   5.880   5.264   3.554 -0.6989 -1.5382 -0.7729
 2469SOL    MW4 9650   5.833   5.281   3.482 -0.3377 -0.5768 -0.1070
 2470SOL     OW 9651   3.748   4.054   6.183 -0.8338  0.1349 -0.1370
 2470SOL    HW2 9652   3.741   4.121   6.250 -2.7539 -0.1100 -0.0110
 2470SOL    HW3 9653   3.791   3.980   6.227 -0.7503  0.4938  0.3931
 2470SOL    MW4 9654   3.752   4.053   6.198 -0.2421  0.0309 -0.6669
 2471SOL     OW 9655   1.994   1.105   3.108  0.7497 -0.3067 -0.7781
 2471SOL    HW2 9656   1.965   1.033   3.163  1.3137 -1.1215 -1.5191
 2471SOL    HW3 9657   1.938   1.179   3.133 -0.8830 -1.3978 -1.0598
 2471SOL    MW4 9658   1.983   1.105   3.118  0.3494 -0.6335  0.0776
 2472SOL     OW 9659   0.199   1.165   1.715 -0.5724 -0.0396  0.1739
 2472SOL    HW2 9660   0.167   1.077   1.697 -0.0736 -0.1540 -0.1746
 2472SOL    HW3 9661   0.132   1.205   1.770 -1.0295 -0.4701 -0.0710
 2472SOL    MW4 9662   0.186   1.159   1.720  0.5719  0.5766 -0.4273
 2473SOL     OW 9663   5.251   1.035   1.559  0.4525  0.0055 -0.5379
 2473SOL    HW2 9664   5.266   1.099   1.489  0.6994 -0.0440 -0.5311
 2473SOL    HW3 9665   5.203   1.084   1.626  0.9381  0.2819 -0.3845
 2473SOL    MW4 9666   5.247   1.050   1.559 -0.0898 -0.0632 -0.4962
 2474SOL     OW 9667   5.485   5.512   2.917  0.4190 -0.3502  0.2138
 2474SOL    HW2 9668   5.535   5.455   2.975  0.1184  0.4503  1.2857
 2474SOL    HW3 9669   5.423   5.454   2.873  0.9011 -1.0230  0.4132
 2474SOL    MW4 9670   5.484   5.497   2.919 -0.5276  0.3402  0.4974
 2475SOL     OW 9671   4.370   0.888   3.055  0.4845  0.5416  0.5864
 2475SOL    HW2 9672   4.305   0.857   2.992  1.3034 -0.1169  0.0462
 2475SOL    HW3 9673   4.318   0.928   3.125 -0.5391 -0.5770  0.5013
 2475SOL    MW4 9674   4.355   0.890   3.056  0.4799  0.4051 -0.3359
 2476SOL     OW 9675   2.071   1.522   5.308  0.2777  0.1596  0.2523
 2476SOL    HW2 9676   2.152   1.567   5.330  0.0436  0.6423  0.1558
 2476SOL    HW3 9677   2.060   1.538   5.214 -0.2315  0.6128  0.3815
 2476SOL    MW4 9678   2.080   1.530   5.298  0.3859 -0.3628  0.3585
 2477SOL     OW 9679   2.984   6.084   5.957  0.0251  0.0971 -0.3101
 2477SOL    HW2 9680   3.072   6.076   5.920  0.1469 -0.5663  0.1167
 2477SOL    HW3 9681   2.930   6.023   5.906 -0.2829  0.7892 -0.8329
 2477SOL    MW4 9682   2.988   6.075   5.945 -0.2076 -0.7333  0.3445
 2478SOL     OW 9683   5.437   0.461   5.954  0.3054  0.1614  0.0295
 2478SOL    HW2 9684   5.532   0.474   5.945  0.4650 -0.0403  1.2334
 2478SOL    HW3 9685   5.408   0.435   5.867  1.6792 -1.6864  0.0582
 2478SOL    MW4 9686   5.446   0.460   5.941  0.0271  0.1935 -0.6313
 2479SOL     OW 9687   2.982   3.368   1.792  0.1337 -0.5126 -0.5469
 2479SOL    HW2 9688   2.925   3.445   1.795 -0.4640 -0.9591 -0.1081
 2479SOL    HW3 9689   3.030   3.377   1.710 -1.9733 -1.0953 -1.9179
 2479SOL    MW4 9690   2.981   3.380   1.782 -0.3861 -0.3931 -0.2619
 2480SOL     OW 9691   3.323   4.950   0.331  0.0079 -0.3126  0.0249
 2480SOL    HW2 9692   3.279   5.018   0.279  1.9603  0.5595 -0.6313
 2480SOL    HW3 9693   3.378   4.999   0.392 -0.4932 -1.3438  1.3421
 2480SOL    MW4 9694   3.325   4.966   0.332 -0.5498 -0.2940 -0.1685
 2481SOL     OW 9695   5.878   4.146   1.057  0.4744  0.4274 -0.3837
 2481SOL    HW2 9696   5.838   4.071   1.014  0.8018 -0.2668  0.4981
 2481SOL    HW3 9697   5.859   4.220   0.999 -0.7469 -0.1517 -0.7483
 2481SOL    MW4 9698   5.870   4.146   1.044  0.2610  0.4704  0.5391
 2482SOL     OW 9699   2.985   4.724   2.255 -0.2777  0.3726 -0.1616
 2482SOL    HW2 9700   3.011   4.632   2.263 -0.6365  0.2655 -0.2075
 2482SOL    HW3 9701   3.062   4.768   2.221 -0.1419  0.0672 -0.2517
 2482SOL    MW4 9702   2.998   4.717   2.252 -0.0325 -0.2155  0.0071
 2483SOL     OW 9703   4.231   4.877   3.438 -0.2143  0.0999  0.4528
 2483SOL    HW2 9704   4.205   4.878   3.530 -0.9712 -1.0182  0.2729
 2483SOL    HW3 9705   4.327   4.879   3.440 -0.2415  0.9957  1.2268
 2483SOL    MW4 9706   4.240   4.877   3.450 -0.6692 -0.0532  0.4515
 2484SOL     OW 9707   3.603   2.507   2.075 -0.1536 -0.4552  0.0469
 2484SOL    HW2 9708   3.650   2.531   2.156 -2.2009  0.0266  1.1687
 2484SOL    HW3 9709   3.641   2.565   2.008  1.2886 -0.5567  0.7338
 2484SOL    MW4 9710   3.614   2.518   2.077  0.1340 -0.3285  0.1285
 2485SOL     OW 9711   1.369   3.249   4.060 -0.5390 -0.5952 -0.2563
 2485SOL    HW2 9712   1.331   3.276   4.143 -0.9382  0.4248 -0.7535
 2485SOL    HW3 9713   1.311   3.286   3.994 -0.0752 -1.1547 -0.9962
 2485SOL    MW4 9714   1.356   3.257   4.062  0.1567 -0.0807  0.2159
 2486SOL     OW 9715   4.854   0.308   5.378 -0.3611  0.6797  0.2210
 2486SOL    HW2 9716   4.887   0.266   5.457 -1.5088 -2.8248 -0.9919
 2486SOL    HW3 9717   4.774   0.352   5.406 -1.4422 -1.5574  0.8974
 2486SOL    MW4 9718   4.848   0.309   5.392  0.2220 -0.4451  0.0283
 2487SOL     OW 9719   4.466   6.229   2.981  0.4127  0.2357 -0.0733
 2487SOL    HW2 9720   4.408   6.219   2.905 -1.0519 -0.0137  1.0333
 2487SOL    HW3 9721   4.551   6.253   2.943  0.2437 -1.7582 -1.9068
 2487SOL    MW4 9722   4.470   6.231   2.966  0.1839 -0.6889 -0.1971
 2488SOL     OW 9723   2.655   1.296   2.393  0.0215 -0.1115  0.3008
 2488SOL    HW2 9724   2.675   1.206   2.369 -1.0698 -0.6087  1.1888
 2488SOL    HW3 9725   2.736   1.329   2.431  1.7571  0.6117 -3.5285
 2488SOL    MW4 9726   2.668   1.289   2.395  0.1311 -0.7397 -0.4535
 2489SOL     OW 9727   2.238   6.016   1.397 -0.4958 -0.5114 -0.4475
 2489SOL    HW2 9728   2.264   5.969   1.476 -1.5532 -0.4703 -0.0602
 2489SOL    HW3 9729   2.296   5.983   1.329  0.5900 -0.3693  0.3865
 2489SOL    MW4 9730   2.249   6.006   1.398 -0.1803 -0.0134 -0.1709
 2490SOL     OW 9731   3.447   4.347   4.794  0.0752  0.4807  0.2322
 2490SOL    HW2 9732   3.458   4.402   4.717  0.9223  0.3397  0.2400
 2490SOL    HW3 9733   3.385   4.280   4.767  0.7461  0.1380 -0.5103
 2490SOL    MW4 9734   3.440   4.345   4.781 -0.8703  0.4838 -0.1846
 2491SOL     OW 9735   1.768   2.746   1.725 -0.6701  0.0364 -0.4874
 2491SOL    HW2 9736   1.791   2.731   1.817 -3.5174  0.4371  0.3589
 2491SOL    HW3 9737   1.687   2.797   1.727  0.0832  1.5905 -3.2626
 2491SOL    MW4 9738   1.761   2.751   1.737  0.3883  0.1854 -0.1225
 2492SOL     OW 9739   5.513   3.632   3.240 -0.0690 -0.0234  0.3445
 2492SOL    HW2 9740   5.549   3.716   3.210 -0.7972  0.6463  1.2887
 2492SOL    HW3 9741   5.569   3.566   3.199  0.2646  0.9048 -0.7558
 2492SOL    MW4 9742   5.525   3.635   3.230 -0.3926 -0.9681  0.0740
 2493SOL     OW 9743   6.251   5.745   1.067  0.1914  0.5015 -0.1980
 2493SOL    HW2 9744   6.260   5.698   1.149  0.2053 -2.5740 -1.8240
 2493SOL    HW3 9745   6.242   5.677   1.000 -1.0503  2.8397 -2.6511
 2493SOL    MW4 9746   6.251   5.730   1.069 -0.7805  0.1035  0.6326
 2494SOL     OW 9747   3.091   2.764   0.709  0.8218  0.6504  0.0773
 2494SOL    HW2 9748   3.131   2.817   0.640  0.4424 -0.8486 -1.3594
 2494SOL    HW3 9749   3.119   2.674   0.690 -3.1285 -0.5387 -1.1026
 2494SOL    MW4 9750   3.100   2.759   0.698  0.1650 -0.1457  0.1258
 2495SOL     OW 9751   2.926   4.519   4.749  0.0208 -0.2129  0.1943
 2495SOL    HW2 9752   2.976   4.438   4.745  0.2583 -0.1059  0.8737
 2495SOL    HW3 9753   2.883   4.517   4.834  1.5330  1.2391  1.0622
 2495SOL    MW4 9754   2.927   4.508   4.760  0.2320 -0.3918  0.6098
 2496SOL     OW 9755   1.600   5.345   0.998 -0.3021  0.1940  0.5150
 2496SOL    HW2 9756   1.671   5.409   1.007 -1.1641  1.1658  0.6143
 2496SOL    HW3 9757   1.575   5.351   0.906 -1.0887  0.7884  0.7579
 2496SOL    MW4 9758   1.606   5.354   0.987  0.0581 -0.6206 -0.3069
 2497SOL     OW 9759   5.390   2.738   5.447 -0.9635 -0.2568  0.1569
 2497SOL    HW2 9760   5.468   2.683   5.447 -0.1833  0.8233  0.4882
 2497SOL    HW3 9761   5.407   2.806   5.381 -1.3164  0.3960  0.7209
 2497SOL    MW4 9762   5.403   2.740   5.438  0.5241  0.6241 -0.5008
 2498SOL     OW 9763   1.243   3.309   4.323 -0.2190 -0.5405  0.1669
 2498SOL    HW2 9764   1.227   3.403   4.320 -0.6678 -0.6127  0.1696
 2498SOL    HW3 9765   1.156   3.270   4.337  0.0121 -0.9336  0.5357
 2498SOL    MW4 9766   1.229   3.316   4.325 -0.6712 -0.3144 -0.2882
 2499SOL     OW 9767   6.138   2.209   5.321 -0.1324  0.1795  0.1228
 2499SOL    HW2 9768   6.167   2.286   5.370 -0.4657 -0.3090  1.1128
 2499SOL    HW3 9769   6.219   2.168   5.291  0.0604  0.7116 -0.0928
 2499SOL    MW4 9770   6.153   2.214   5.324 -0.0306 -0.4343 -0.0342
 2500SOL     OW 9771   5.830   1.057   6.018 -0.4336  0.3527  0.4797
 2500SOL    HW2 9772   5.836   1.150   5.996  0.7184  0.4970  1.2860
 2500SOL    HW3 9773   5.908   1.018   5.978 -0.6397 -0.1682  0.5778
 2500SOL    MW4 9774   5.841   1.064   6.010 -0.5778 -0.4624 -0.2383
 2501SOL     OW 9775   2.305   1.153   3.983  0.0616 -0.2964 -0.1754
 2501SOL    HW2 9776   2.373   1.094   4.015  1.3482  0.9082 -0.5783
 2501SOL    HW3 9777   2.312   1.149   3.888 -0.7388 -0.4789 -0.2344
 2501SOL    MW4 9778   2.315   1.145   3.975 -0.3116 -0.4362  0.3809
 2502SOL     OW 9779   4.455   3.442   2.628 -0.1094  0.2760  0.5843
 2502SOL    HW2 9780   4.445   3.533   2.656 -0.3476  0.4140  0.0787
 2502SOL    HW3 9781   4.365   3.410   2.617 -0.0279 -0.0678  0.9061
 2502SOL    MW4 9782   4.442   3.450   2.630  0.8136 -0.0236 -0.1356
 2503SOL     OW 9783   4.389   1.525   0.850  0.2763 -0.2776  0.0873
 2503SOL    HW2 9784   4.450   1.562   0.787  0.2523 -0.8412 -0.2662
 2503SOL    HW3 9785   4.430   1.444   0.879 -0.7903 -1.2189 -0.9587
 2503SOL    MW4 9786   4.402   1.519   0.846  0.2753 -0.7353 -0.1334
 2504SOL     OW 9787   0.203   2.170   5.838  0.1118 -0.2119  0.0045
 2504SOL    HW2 9788   0.264   2.143   5.770 -1.1043  0.2117 -1.2991
 2504SOL    HW3 9789   0.166   2.088   5.871 -0.1893 -0.3680 -0.7108
 2504SOL    MW4 9790   0.206   2.156   5.834 -0.1606  0.0113 -0.3151
 2505SOL     OW 9791   4.072   5.531   4.801 -0.7670  0.2012 -0.0828
 2505SOL    HW2 9792   4.012   5.457   4.789  0.3428 -0.5161 -1.5510
 2505SOL    HW3 9793   4.129   5.504   4.873  1.5845 -1.8322 -2.4928
 2505SOL    MW4 9794   4.072   5.518   4.809  0.0331  0.0878 -0.3781
 2506SOL     OW 9795   6.141   4.069   0.807  0.2552 -0.8462  0.1690
 2506SOL    HW2 9796   6.145   4.116   0.891 -0.7157  0.9592 -0.7502
 2506SOL    HW3 9797   6.048   4.065   0.785  0.4932 -1.3259 -0.8224
 2506SOL    MW4 9798   6.129   4.075   0.815 -0.3612 -0.0551 -0.2608
 2507SOL     OW 9799   3.150   2.658   6.090  0.3703  1.2344  0.0809
 2507SOL    HW2 9800   3.103   2.713   6.028  1.2151 -0.3583 -2.1010
 2507SOL    HW3 9801   3.104   2.574   6.088  2.2485  0.1619 -0.8854
 2507SOL    MW4 9802   3.138   2.655   6.081 -0.4196  0.3365 -0.1423
 2508SOL     OW 9803   5.559   5.927   0.988 -0.2755  0.0660 -0.0954
 2508SOL    HW2 9804   5.488   5.866   1.007 -0.7500  0.5789 -0.2056
 2508SOL    HW3 9805   5.631   5.898   1.044 -0.2687 -0.9906 -0.6221
 2508SOL    MW4 9806   5.559   5.915   0.998  0.4305 -0.0508  0.2559
 2509SOL     OW 9807   5.817   2.659   0.625 -0.1057  0.6227  0.5726
 2509SOL    HW2 9808   5.751   2.697   0.566  1.4137  0.8135 -1.1122
 2509SOL    HW3 9809   5.796   2.566   0.628 -0.7523  0.7606  0.4601
 2509SOL    MW4 9810   5.806   2.652   0.617 -0.7459  0.3363  0.0105
 2510SOL     OW 9811   1.046   1.743   2.947 -0.2490  0.5059 -0.2518
 2510SOL    HW2 9812   1.040   1.660   2.994  2.6210 -0.6689 -1.6888
 2510SOL    HW3 9813   1.011   1.808   3.008  1.3487 -1.1822  2.7129
 2510SOL    MW4 9814   1.041   1.741   2.961 -0.0104 -0.3805  0.0656
 2511SOL     OW 9815   0.409   3.402   3.176  0.6412 -0.1678 -0.0808
 2511SOL    HW2 9816   0.453   3.368   3.253  1.8192  2.1519  0.3723
 2511SOL    HW3 9817   0.320   3.421   3.206  1.0673  0.6521  0.7372
 2511SOL    MW4 9818   0.403   3.400   3.190 -0.1343 -0.3153 -0.0617
 2512SOL     OW 9819   3.345   6.132   2.386  0.8889  0.3215 -0.0182
 2512SOL    HW2 9820   3.348   6.044   2.348  0.2952  1.1476 -2.1448
 2512SOL    HW3 9821   3.398   6.126   2.465  1.6662 -1.7044 -0.6240
 2512SOL    MW4 9822   3.352   6.120   2.392 -0.0431 -0.1566  0.4975
 2513SOL     OW 9823   1.331   4.354   0.498  0.0432  0.3341 -0.1685
 2513SOL    HW2 9824   1.359   4.385   0.584  1.9237 -0.3030 -0.4938
 2513SOL    HW3 9825   1.246   4.395   0.484 -0.6683 -0.1146  2.2922
 2513SOL    MW4 9826   1.324   4.363   0.508  0.2634  0.1922  0.7456
 2514SOL     OW 9827   2.948   5.827   5.808 -0.1881 -0.5748 -0.0825
 2514SOL    HW2 9828   3.016   5.817   5.874 -1.2618 -1.3337  0.9525
 2514SOL    HW3 9829   2.961   5.754   5.748 -1.0365 -1.6693  1.0202
 2514SOL    MW4 9830   2.958   5.816   5.809 -0.2243  0.3434 -0.3874
 2515SOL     OW 9831   4.920   4.883   3.244 -0.0061  0.5490  0.9985
 2515SOL    HW2 9832   4.965   4.856   3.324 -1.8135  0.5153  2.0572
 2515SOL    HW3 9833   4.859   4.811   3.225 -0.5086  1.1375  0.3368
 2515SOL    MW4 9834   4.918   4.870   3.252 -0.3527  0.2169  0.1467
 2516SOL     OW 9835   2.733   0.302   4.089 -0.6931  0.1524 -0.2739
 2516SOL    HW2 9836   2.786   0.299   4.009  0.6016  0.1897  0.5550
 2516SOL    HW3 9837   2.670   0.372   4.074 -0.1459  0.4872 -1.0567
 2516SOL    MW4 9838   2.732   0.311   4.076 -0.4041 -0.4897 -0.6367
 2517SOL     OW 9839   0.052   3.406   2.347  0.2172 -0.3078  0.7135
 2517SOL    HW2 9840   0.131   3.461   2.350  0.6315 -0.9261  1.7972
 2517SOL    HW3 9841   0.084   3.320   2.317 -0.1895 -0.3382  0.3611
 2517SOL    MW4 9842   0.067   3.402   2.343 -0.3537  0.0399  0.2604
 2518SOL     OW 9843   4.205   5.980   4.621 -0.7760 -0.7007 -0.4538
 2518SOL    HW2 9844   4.243   5.892   4.626  1.2575  0.1178 -0.6223
 2518SOL    HW3 9845   4.277   6.036   4.592 -1.7642  1.1838  0.5176
 2518SOL    MW4 9846   4.220   5.976   4.618 -0.1185 -0.0463  0.1935
 2519SOL     OW 9847   0.980   2.528   1.321  0.2592  0.1681 -0.2254
 2519SOL    HW2 9848   0.959   2.603   1.376 -0.1578 -1.1173  1.4411
 2519SOL    HW3 9849   1.067   2.500   1.351 -0.1395 -0.7813  0.1093
 2519SOL    MW4 9850   0.989   2.534   1.332 -0.5944  0.1430 -0.4109
 2520SOL     OW 9851   0.384   4.858   2.572  0.2445 -0.2991 -0.3640
 2520SOL    HW2 9852   0.467   4.902   2.589  0.8569 -1.3891 -0.4750
 2520SOL    HW3 9853   0.319   4.914   2.615  1.1225  0.1184  0.4712
 2520SOL    MW4 9854   0.386   4.871   2.580  0.7690 -0.1329  0.1068
 2521SOL     OW 9855   2.870   1.037   3.645 -0.2460 -0.0587  0.2669
 2521SOL    HW2 9856   2.822   0.958   3.621 -0.0695 -0.3452  0.8344
 2521SOL    HW3 9857   2.936   1.048   3.577 -0.0934 -0.5545  0.3333
 2521SOL    MW4 9858   2.872   1.028   3.633 -0.2755  0.3220  0.4707
 2522SOL     OW 9859   2.653   0.860   3.829  0.0999  0.1551 -0.1717
 2522SOL    HW2 9860   2.689   0.928   3.886 -1.2759 -0.3655  1.3895
 2522SOL    HW3 9861   2.673   0.778   3.874 -0.3106 -0.3364 -0.8629
 2522SOL    MW4 9862   2.661   0.859   3.842 -0.0013 -0.4150 -0.4474
 2523SOL     OW 9863   3.813   2.785   3.701  0.1394  0.3661  0.6011
 2523SOL    HW2 9864   3.792   2.831   3.619 -3.0144  1.1403  1.7186
 2523SOL    HW3 9865   3.872   2.845   3.747  0.9403  0.4781 -0.5168
 2523SOL    MW4 9866   3.818   2.799   3.696  0.3825  0.0407  0.3952
 2524SOL     OW 9867   4.413   4.543   6.362 -0.2454 -0.1931 -0.1866
 2524SOL    HW2 9868   4.395   4.549   6.268 -2.9341 -0.1774  0.2459
 2524SOL    HW3 9869   4.337   4.582   6.404  0.0554 -1.7774  2.0374
 2524SOL    MW4 9870   4.401   4.549   6.355  0.4848  0.3636 -0.2155
 2525SOL     OW 9871   2.529   2.308   3.419 -0.4739 -0.0850 -0.1291
 2525SOL    HW2 9872   2.580   2.372   3.469 -0.9802  0.3903 -0.2065
 2525SOL    HW3 9873   2.567   2.308   3.332  1.9033 -2.5627  0.7504
 2525SOL    MW4 9874   2.541   2.316   3.414 -0.0371 -0.4280  0.1068
 2526SOL     OW 9875   0.370   3.868   0.531 -0.0938  0.0402 -0.4952
 2526SOL    HW2 9876   0.377   3.872   0.626  0.1529 -2.5156 -0.3435
 2526SOL    HW3 9877   0.276   3.875   0.514 -0.2483 -0.6633  0.0329
 2526SOL    MW4 9878   0.358   3.869   0.541  0.3409  0.1539 -0.3234
 2527SOL     OW 9879   2.510   5.789   2.356  0.0250  0.4349  0.6863
 2527SOL    HW2 9880   2.527   5.698   2.330  0.2662  1.1402 -1.8261
 2527SOL    HW3 9881   2.449   5.822   2.290 -1.4544  1.6283  2.5511
 2527SOL    MW4 9882   2.504   5.781   2.344 -0.8712 -0.2419  0.1869
 2528SOL     OW 9883   6.013   4.628   5.463  0.3877  0.3444 -0.0985
 2528SOL    HW2 9884   6.023   4.654   5.371 -1.3339  1.6000  0.0170
 2528SOL    HW3 9885   6.009   4.533   5.461 -1.0217  0.3879 -1.5195
 2528SOL    MW4 9886   6.014   4.619   5.450  0.3072  0.3903 -0.0138
 2529SOL     OW 9887   5.144   5.673   4.899 -0.8461 -0.6153  0.1553
 2529SOL    HW2 9888   5.182   5.591   4.867  0.6517  0.0977 -0.0223
 2529SOL    HW3 9889   5.050   5.665   4.883 -0.7103 -2.2277  0.0222
 2529SOL    MW4 9890   5.137   5.661   4.892  0.1295  0.2550  0.5670
 2530SOL     OW 9891   5.994   3.100   2.469 -0.1990 -0.1090 -0.7976
 2530SOL    HW2 9892   5.925   3.112   2.403 -0.7920 -2.1393 -0.6206
 2530SOL    HW3 9893   5.948   3.064   2.545  1.2866 -4.6767 -1.7339
 2530SOL    MW4 9894   5.979   3.096   2.470 -0.3623  0.2222  0.2020
 2531SOL     OW 9895   3.048   0.484   4.596  0.5540  0.4309  0.5255
 2531SOL    HW2 9896   3.133   0.474   4.553 -0.1611 -2.5701 -0.4462
 2531SOL    HW3 9897   3.045   0.413   4.659 -2.0586 -1.0197 -1.0608
 2531SOL    MW4 9898   3.059   0.474   4.598 -0.3445  0.1891 -0.2065
 2532SOL     OW 9899   2.027   4.258   2.411  0.5897  0.1879  1.0224
 2532SOL    HW2 9900   2.074   4.339   2.393  1.8631 -0.8958 -0.8295
 2532SOL    HW3 9901   1.936   4.279   2.393  0.7632  1.4188  1.4455
 2532SOL    MW4 9902   2.021   4.272   2.406  0.0363 -0.0470 -0.1052
 2533SOL     OW 9903   5.847   1.304   6.412  0.5080 -0.0301  0.4079
 2533SOL    HW2 9904   5.866   1.211   6.396  0.1107  0.1796 -1.6389
 2533SOL    HW3 9905   5.790   1.304   6.489  0.8122 -1.4460  0.6687
 2533SOL    MW4 9906   5.842   1.292   6.420  0.0170  0.3087  0.1491
 2534SOL     OW 9907   3.473   2.340   1.826 -0.1515 -0.0663  0.2377
 2534SOL    HW2 9908   3.564   2.332   1.797 -0.2704  1.4335 -0.6558
 2534SOL    HW3 9909   3.440   2.417   1.781 -2.4204 -1.5467 -0.8285
 2534SOL    MW4 9910   3.481   2.349   1.816 -0.4007  0.4014 -0.5960
 2535SOL     OW 9911   0.557   5.629   1.281  0.1953 -0.2651  0.6170
 2535SOL    HW2 9912   0.491   5.576   1.236 -0.7229  0.7745  0.6931
 2535SOL    HW3 9913   0.512   5.661   1.360  0.6271  0.8523  0.4213
 2535SOL    MW4 9914   0.542   5.626   1.286 -0.0439  0.3375 -0.0730
 2536SOL     OW 9915   5.307   6.412   3.273  0.4199 -0.2533 -0.2899
 2536SOL    HW2 9916   5.347   6.337   3.227  1.3373 -0.3171  0.5703
 2536SOL    HW3 9917   5.382   6.460   3.308 -0.2568 -0.6781  1.8569
 2536SOL    MW4 9918   5.322   6.408   3.272  0.1056  0.7570  0.0857
 2537SOL     OW 9919   6.179   4.340   5.517 -0.2790 -0.1750  0.3104
 2537SOL    HW2 9920   6.166   4.271   5.452 -1.2634  1.2021 -1.0545
 2537SOL    HW3 9921   6.091   4.360   5.548  0.0501  0.1195  1.0623
 2537SOL    MW4 9922   6.166   4.334   5.513  0.1755  0.1332 -0.0596
 2538SOL     OW 9923   4.235   5.929   4.075 -0.2079 -0.6263  0.4865
 2538SOL    HW2 9924   4.216   5.868   4.147  0.2106 -1.2088  0.1126
 2538SOL    HW3 9925   4.199   6.012   4.104 -0.8724 -1.0758  0.9710
 2538SOL    MW4 9926   4.228   5.932   4.089 -0.0891  0.3237  0.6448
 2539SOL     OW 9927   5.349   2.743   6.071 -0.0957  0.2979 -0.4248
 2539SOL    HW2 9928   5.285   2.727   6.002  0.2761  0.9706 -0.9390
 2539SOL    HW3 9929   5.300   2.731   6.152 -0.8799  0.8101 -0.8085
 2539SOL    MW4 9930   5.334   2.739   6.073 -0.0563 -0.3930  0.3477
 2540SOL     OW 9931   3.203   5.975   6.217  0.0130  0.0245 -0.2638
 2540SOL    HW2 9932   3.226   6.067   6.206 -0.9499  0.3696  0.4236
 2540SOL    HW3 9933   3.143   5.975   6.292  1.7849 -1.4347  1.2639
 2540SOL    MW4 9934   3.198   5.987   6.226 -0.2118 -0.3958  0.0081
 2541SOL     OW 9935   2.156   3.780   3.064 -0.1467 -0.0814  0.3453
 2541SOL    HW2 9936   2.087   3.831   3.107 -0.8790  0.5956 -1.5596
 2541SOL    HW3 9937   2.225   3.844   3.045  0.9853 -0.7075  2.0120
 2541SOL    MW4 9938   2.156   3.795   3.067 -0.6813 -0.2692 -0.3960
 2542SOL     OW 9939   4.001   3.298   5.964  0.1128 -0.0712  0.5247
 2542SOL    HW2 9940   4.007   3.380   6.013 -0.9730 -0.1324  0.7842
 2542SOL    HW3 9941   3.922   3.306   5.912  0.9001 -0.2877 -0.7392
 2542SOL    MW4 9942   3.992   3.310   5.964 -0.1666  0.3411  0.4100
 2543SOL     OW 9943   1.097   0.712   4.320 -0.5445 -0.0117 -0.1833
 2543SOL    HW2 9944   1.054   0.741   4.400 -1.0334  1.9573 -1.0944
 2543SOL    HW3 9945   1.028   0.667   4.271 -0.1070 -1.7179  0.6796
 2543SOL    MW4 9946   1.082   0.710   4.324 -0.5520  0.2881 -0.1454
 2544SOL     OW 9947   1.073   1.706   1.749  0.0915 -0.3268  0.0008
 2544SOL    HW2 9948   1.077   1.626   1.696 -2.7258  0.0672 -0.9873
 2544SOL    HW3 9949   1.111   1.681   1.833 -1.1205 -2.8864 -0.1149
 2544SOL    MW4 9950   1.078   1.692   1.753 -0.4112  0.3344  0.0608
 2545SOL     OW 9951   5.956   4.465   2.261 -0.3225 -0.1481 -0.8492
 2545SOL    HW2 9952   6.014   4.414   2.317  1.6197 -0.0000 -2.6044
 2545SOL    HW3 9953   5.948   4.550   2.305 -0.3320 -0.6265  0.0817
 2545SOL    MW4 9954   5.962   4.470   2.274  0.5807 -0.0664  0.5294
 2546SOL     OW 9955   3.010   3.240   1.380 -0.3649 -0.4195 -0.1576
 2546SOL    HW2 9956   3.058   3.166   1.345 -0.1389 -0.6594  0.6320
 2546SOL    HW3 9957   2.931   3.202   1.419  0.7203 -0.5369  2.0738
 2546SOL    MW4 9958   3.006   3.225   1.381  0.5722 -0.1999 -0.5288
 2547SOL     OW 9959   4.849   1.349   1.910 -0.2696 -0.1923 -0.1078
 2547SOL    HW2 9960   4.914   1.416   1.887 -1.1527  0.5935 -0.3694
 2547SOL    HW3 9961   4.821   1.372   1.999  0.0606 -0.7461  0.1479
 2547SOL    MW4 9962   4.854   1.361   1.919 -1.1698  0.2552 -0.1156
 2548SOL     OW 9963   0.967   1.925   4.863 -0.5294 -0.2024 -0.1876
 2548SOL    HW2 9964   1.052   1.882   4.875  0.5439  2.0989  1.0917
 2548SOL    HW3 9965   0.918   1.905   4.942 -0.3657  0.1911  0.0148
 2548SOL    MW4 9966   0.972   1.917   4.875 -0.4753 -0.3347  0.7821
 2549SOL     OW 9967   0.679   4.737   2.236  0.2068  0.4317  0.2990
 2549SOL    HW2 9968   0.621   4.660   2.231 -1.3058  1.4015  1.8014
 2549SOL    HW3 9969   0.631   4.806   2.191 -0.1604  1.4126  2.0923
 2549SOL    MW4 9970   0.665   4.736   2.229 -0.3947 -0.5891  0.2784
 2550SOL     OW 9971   0.930   3.294   5.423  0.0814  0.5070  0.0434
 2550SOL    HW2 9972   0.858   3.255   5.474  0.4457 -0.6010 -0.2637
 2550SOL    HW3 9973   0.981   3.344   5.487  2.4489 -3.4831  1.6008
 2550SOL    MW4 9974   0.927   3.296   5.438 -0.5562 -0.1166  0.3638
 2551SOL     OW 9975   4.624   5.051   5.211 -0.3215  0.0781 -0.1900
 2551SOL    HW2 9976   4.692   5.010   5.264  1.4434  2.4024 -0.5321
 2551SOL    HW3 9977   4.564   5.089   5.275 -0.8904 -1.2216  0.0986
 2551SOL    MW4 9978   4.625   5.050   5.227 -0.3504  0.6589  0.0674
 2552SOL     OW 9979   6.316   5.795   5.558  0.0088  0.2466  0.5308
 2552SOL    HW2 9980   6.327   5.703   5.535  0.8669 -0.1659  2.4029
 2552SOL    HW3 9981   6.288   5.837   5.477 -1.7475 -1.8855 -0.0590
 2552SOL    MW4 9982   6.314   5.789   5.545 -0.3899 -0.2427  0.2901
 2553SOL     OW 9983   0.237   4.987   1.304 -0.3862 -0.1903 -0.3696
 2553SOL    HW2 9984   0.150   4.961   1.275 -0.9158 -0.6303  1.4886
 2553SOL    HW3 9985   0.254   4.933   1.381  0.9655  0.8334  0.0904
 2553SOL    MW4 9986   0.228   4.977   1.310  0.3331 -0.3096 -0.6155
 2554SOL     OW 9987   4.964   3.770   3.788 -0.3935  0.1382 -0.3788
 2554SOL    HW2 9988   4.930   3.776   3.699  0.5425  1.8006 -0.6826
 2554SOL    HW3 9989   5.016   3.850   3.799  1.5734 -1.1910  0.7877
 2554SOL    MW4 9990   4.967   3.782   3.778  0.0505  0.2129  0.1811
 2555SOL     OW 9991   0.910   6.180   1.256  0.0877 -0.3651  0.4231
 2555SOL    HW2 9992   0.898   6.086   1.271 -1.9856 -0.4929 -1.5057
 2555SOL    HW3 9993   0.944   6.186   1.167  0.9990  0.7265  0.8133
 2555SOL    MW4 9994   0.913   6.168   1.247  0.4405 -0.1351  0.0475
 2556SOL     OW 9995   4.236   3.382   5.364  0.3339 -0.1959 -0.3261
 2556SOL    HW2 9996   4.161   3.331   5.394  0.5662 -0.3765 -0.0468
 2556SOL    HW3 9997   4.198   3.461   5.325  0.0493  0.5780  1.4208
 2556SOL    MW4 9998   4.221   3.386   5.362 -0.3947 -0.0576  0.1865
 2557SOL     OW 9999   5.796   5.769   5.158  0.2348  0.5817  0.7605
 2557SOL    HW210000   5.830   5.807   5.077 -0.3150 -1.7175 -0.6623
 2557SOL    HW310001   5.875   5.744   5.207  0.5787  0.8303  0.3443
 2557SOL    MW410002   5.811   5.770   5.154  0.0283 -0.0257  0.1206
 2558SOL     OW10003   6.300   3.702   1.084  0.3326 -0.1495  0.3446
 2558SOL    HW210004   6.389   3.683   1.055  0.2373  0.6111 -0.4826
 2558SOL    HW310005   6.299   3.796   1.101 -0.6403  0.0827 -0.8930
 2558SOL    MW410006   6.311   3.712   1.082  0.0772  0.3015  0.3880
 2559SOL     OW10007   1.327   6.139   1.919 -0.6169  0.1798 -0.2543
 2559SOL    HW210008   1.411   6.102   1.947 -0.1993 -0.4381 -2.1285
 2559SOL    HW310009   1.264   6.068   1.934 -0.9422  0.8138  1.6156
 2559SOL    MW410010   1.330   6.125   1.924 -0.1516  0.3749 -0.2018
 2560SOL     OW10011   3.315   5.083   0.748  0.3786  0.2490 -0.4169
 2560SOL    HW210012   3.346   4.998   0.779 -1.5990 -0.5091 -0.3991
 2560SOL    HW310013   3.360   5.096   0.664 -0.1188 -1.3454 -0.9692
 2560SOL    MW410014   3.325   5.073   0.741 -0.8880 -0.4544 -0.0914
 2561SOL     OW10015   4.749   5.226   4.735 -0.1877 -0.6076 -0.0595
 2561SOL    HW210016   4.728   5.241   4.642 -0.0191  0.7886  0.0974
 2561SOL    HW310017   4.774   5.134   4.740  0.1792 -0.6096 -1.4834
 2561SOL    MW410018   4.750   5.216   4.723 -0.6275  0.1762  0.3813
 2562SOL     OW10019   4.827   5.951   4.502  0.5309 -0.2944  0.5626
 2562SOL    HW210020   4.893   5.884   4.521  0.5023 -0.2627  0.7670
 2562SOL    HW310021   4.805   5.937   4.410  0.9419 -0.2069  0.4443
 2562SOL    MW410022   4.833   5.941   4.492  0.1228 -0.0786  0.6076
 2563SOL     OW10023   2.977   2.367   5.758 -0.3489  0.2101  0.0671
 2563SOL    HW210024   2.883   2.356   5.745 -0.6087  2.6900 -0.6931
 2563SOL    HW310025   2.987   2.460   5.777  2.2595  0.7976 -3.2989
 2563SOL    MW410026   2.966   2.378   5.759  0.2402  0.0848 -0.3826
 2564SOL     OW10027   2.842   4.669   6.380 -0.1851 -0.2681  0.6867
 2564SOL    HW210028   2.797   4.656   6.297  2.5174  0.9676 -1.1143
 2564SOL    HW310029   2.790   4.735   6.426 -0.4516  0.8776 -1.1592
 2564SOL    MW410030   2.829   4.676   6.375  0.4322 -0.4594 -0.0166
 2565SOL     OW10031   3.424   4.281   0.756 -0.6734 -0.0995  0.4806
 2565SOL    HW210032   3.511   4.302   0.790 -0.5678 -1.9605  1.4719
 2565SOL    HW310033   3.434   4.283   0.661  0.3228  0.1623  0.5808
 2565SOL    MW410034   3.436   4.284   0.748 -0.0071  0.4542  0.6361
 2566SOL     OW10035   5.116   2.644   5.565 -0.6134  0.2277 -0.2380
 2566SOL    HW210036   5.052   2.602   5.622  0.1471  1.1493  1.3961
 2566SOL    HW310037   5.196   2.647   5.618  0.7407 -0.6909 -2.1250
 2566SOL    MW410038   5.118   2.639   5.580 -0.3911  0.0534 -0.0756
 2567SOL     OW10039   0.107   3.251   4.218  0.0672  0.2180 -0.3873
 2567SOL    HW210040   0.160   3.224   4.292  0.4365 -0.9696 -1.0513
 2567SOL    HW310041   0.164   3.240   4.142 -0.9761 -0.7254 -1.0758
 2567SOL    MW410042   0.122   3.246   4.218  0.1880  0.1855 -0.3924
 2568SOL     OW10043   1.624   3.298   2.308  0.1372  0.6097  0.3073
 2568SOL    HW210044   1.667   3.263   2.230  0.8089  0.7540  0.6015
 2568SOL    HW310045   1.557   3.234   2.329  2.6823 -1.7371  2.0800
 2568SOL    MW410046   1.621   3.285   2.300 -0.2914  0.5616  0.3749
 2569SOL     OW10047   1.471   0.095   6.073  0.1992  0.6052 -0.2075
 2569SOL    HW210048   1.403   0.120   6.011  0.7972  1.6754 -0.4579
 2569SOL    HW310049   1.469   0.163   6.140  1.4745  1.0422 -0.5855
 2569SOL    MW410050   1.462   0.107   6.073  0.7906  0.1494 -0.0310
 2570SOL     OW10051   2.674   0.669   3.049  0.7229  0.1130  0.2852
 2570SOL    HW210052   2.703   0.744   2.997  1.1613  1.6298  2.5557
 2570SOL    HW310053   2.735   0.667   3.123 -0.4171 -1.3551  1.2312
 2570SOL    MW410054   2.686   0.679   3.052 -0.7969 -0.0328 -0.0591
 2571SOL     OW10055   2.845   1.700   3.614  0.1312 -0.0864 -0.3657
 2571SOL    HW210056   2.869   1.632   3.677  0.5919 -0.1878 -0.6491
 2571SOL    HW310057   2.921   1.757   3.610 -0.1517  0.3013 -0.3318
 2571SOL    MW410058   2.858   1.698   3.622  0.2331  0.0187 -0.3246
 2572SOL     OW10059   3.756   1.106   1.449 -0.5038 -0.2583  0.0540
 2572SOL    HW210060   3.780   1.028   1.497  0.2890  0.3401  0.6437
 2572SOL    HW310061   3.823   1.115   1.381 -0.4966 -0.0045  0.0909
 2572SOL    MW410062   3.768   1.097   1.446 -0.0094  0.1801 -0.5035
 2573SOL     OW10063   6.402   3.032   3.689  0.2257  0.8170 -0.3895
 2573SOL    HW210064   6.311   3.031   3.721  1.5323 -0.5786  4.0327
 2573SOL    HW310065   6.414   2.946   3.648 -0.0315  0.1735  0.8061
 2573SOL    MW410066   6.391   3.020   3.688 -0.0580 -0.5926  0.2032
 2574SOL     OW10067   4.599   0.746   5.596  0.1260 -0.3188  0.6464
 2574SOL    HW210068   4.663   0.817   5.593 -1.2931  1.0129 -0.9807
 2574SOL    HW310069   4.545   0.766   5.673 -0.3076  0.4770  0.1625
 2574SOL    MW410070   4.600   0.758   5.606 -0.1897 -0.2527  0.1378
 2575SOL     OW10071   5.789   3.278   5.860 -0.1556 -0.0481 -0.0283
 2575SOL    HW210072   5.827   3.211   5.804 -0.4716  0.4316 -0.8448
 2575SOL    HW310073   5.695   3.271   5.844 -0.3998 -0.8520  1.5386
 2575SOL    MW410074   5.781   3.268   5.850 -0.1360 -0.7167  0.5093
 2576SOL     OW10075   5.224   1.948   6.092 -0.4527 -0.5265 -0.3330
 2576SOL    HW210076   5.168   2.006   6.142  0.5139 -0.1889  0.3880
 2576SOL    HW310077   5.283   1.909   6.157  0.8942  0.0035 -1.1961
 2576SOL    MW410078   5.224   1.951   6.107  0.0287 -0.4791  0.5107
 2577SOL     OW10079   5.060   3.332   4.594 -0.5194  0.2813 -0.6207
 2577SOL    HW210080   5.132   3.395   4.595 -0.8058  0.6038 -0.2623
 2577SOL    HW310081   5.081   3.274   4.520  0.9503 -0.6389  0.4588
 2577SOL    MW410082   5.072   3.332   4.584  0.0621  0.1182  0.1828
 2578SOL     OW10083   3.747   3.078   4.944 -0.3650  0.0639  0.6685
 2578SOL    HW210084   3.686   3.004   4.953  1.0468 -1.0616  1.2691
 2578SOL    HW310085   3.692   3.155   4.956 -2.3961 -0.7049 -2.5040
 2578SOL    MW410086   3.731   3.078   4.947 -0.0522  0.0556 -0.2191
 2579SOL     OW10087   1.052   2.464   5.727 -0.1513  0.0801 -0.2096
 2579SOL    HW210088   1.118   2.465   5.796 -1.6957  0.5381  1.3255
 2579SOL    HW310089   1.020   2.554   5.722 -0.3534 -0.0328 -1.2567
 2579SOL    MW410090   1.057   2.476   5.735 -0.0692 -0.2091 -0.0667
 2580SOL     OW10091   2.383   0.362   0.783  0.2638  0.1361 -0.6864
 2580SOL    HW210092   2.349   0.367   0.872  2.2762 -1.0788  0.1982
 2580SOL    HW310093   2.338   0.434   0.737 -0.1953  1.3399  1.4960
 2580SOL    MW410094   2.372   0.372   0.788 -0.0855 -0.2201  0.2377
 2581SOL     OW10095   4.116   4.369   3.098 -0.3793 -0.0901 -0.2835
 2581SOL    HW210096   4.062   4.421   3.038 -2.3270 -1.4869  0.1984
 2581SOL    HW310097   4.122   4.423   3.177  0.4183  0.8067 -0.9134
 2581SOL    MW410098   4.110   4.383   3.100  0.2337  0.3995  0.2051
 2582SOL     OW10099   3.006   2.458   3.737  0.4649  0.3215 -0.1344
 2582SOL    HW210100   3.003   2.547   3.771 -1.0256 -0.2074  1.3132
 2582SOL    HW310101   3.051   2.408   3.805  0.6117 -0.1638 -0.5811
 2582SOL    MW410102   3.011   2.463   3.751  0.2126 -0.3637 -0.1731
 2583SOL     OW10103   1.820   5.329   1.492  0.5486 -0.7047 -0.0724
 2583SOL    HW210104   1.827   5.260   1.559  0.2943  0.2182  0.9316
 2583SOL    HW310105   1.726   5.342   1.481  0.5951  0.0550  0.3677
 2583SOL    MW410106   1.809   5.322   1.500 -0.8996  0.7316  0.0717
 2584SOL     OW10107   1.883   0.746   3.797  0.0862 -0.3076  0.0896
 2584SOL    HW210108   1.844   0.768   3.882 -0.1672 -0.1149 -0.0751
 2584SOL    HW310109   1.864   0.821   3.742 -0.8442 -0.9462 -0.4989
 2584SOL    MW410110   1.875   0.759   3.801  0.9271  0.5271  0.1270
 2585SOL     OW10111   2.558   3.775   3.365  0.1023  0.2559 -0.0896
 2585SOL    HW210112   2.592   3.701   3.414  0.4409  0.3277 -0.2084
 2585SOL    HW310113   2.464   3.760   3.359 -0.1652  0.9923  1.8259
 2585SOL    MW410114   2.550   3.763   3.370 -0.0704  0.0592 -0.6514
 2586SOL     OW10115   0.931   2.898   1.124  0.0227 -0.0281  0.1167
 2586SOL    HW210116   0.950   2.873   1.214 -1.2980  1.1252  0.7477
 2586SOL    HW310117   0.887   2.982   1.131 -0.6312 -0.1932 -1.5786
 2586SOL    MW410118   0.928   2.906   1.136 -0.1950 -0.0520  0.5819
 2587SOL     OW10119   4.777   2.832   0.906 -0.2200  0.1218  0.1719
 2587SOL    HW210120   4.724   2.895   0.954 -0.6321 -0.1421  0.0624
 2587SOL    HW310121   4.863   2.836   0.950 -0.8773 -0.8620  1.6283
 2587SOL    MW410122   4.782   2.841   0.918 -0.4507  0.4003 -0.7099
 2588SOL     OW10123   3.930   6.335   5.299 -0.3712 -0.8447 -0.5492
 2588SOL    HW210124   3.863   6.283   5.342 -2.2799  1.2684 -0.7723
 2588SOL    HW310125   3.901   6.426   5.310  1.7666  0.0905 -1.8441
 2588SOL    MW410126   3.918   6.340   5.306  0.4970  0.1678 -0.5673
 2589SOL     OW10127   0.653   5.473   3.563  0.2416 -0.4678  0.1529
 2589SOL    HW210128   0.632   5.405   3.627 -0.3799  0.1888  0.6679
 2589SOL    HW310129   0.661   5.553   3.615 -0.3658  0.1010 -0.5907
 2589SOL    MW410130   0.651   5.475   3.578 -0.7458 -0.0948 -0.0941
 2590SOL     OW10131   0.894   1.414   5.420 -0.6723  0.0303 -0.0763
 2590SOL    HW210132   0.953   1.479   5.458 -0.7893 -0.7497  1.5238
 2590SOL    HW310133   0.933   1.330   5.445 -1.0879 -0.5154 -1.2207
 2590SOL    MW410134   0.907   1.412   5.429  0.5180 -0.2775  0.3723
 2591SOL     OW10135   4.946   1.210   2.875  0.8217 -0.4628  0.5632
 2591SOL    HW210136   5.018   1.264   2.908  1.8813 -0.8408 -1.0171
 2591SOL    HW310137   4.964   1.200   2.782 -1.4409 -0.3775  0.0585
 2591SOL    MW410138   4.958   1.216   2.867  0.2669  0.1323 -0.2911
 2592SOL     OW10139   1.429   2.337   1.786 -0.4026 -0.1042  0.8694
 2592SOL    HW210140   1.516   2.361   1.819 -0.7385  0.0890  1.6514
 2592SOL    HW310141   1.418   2.245   1.810  0.5689 -0.8681 -1.4351
 2592SOL    MW410142   1.439   2.328   1.794  0.8331 -0.2401  0.1198
 2593SOL     OW10143   1.545   5.629   5.416  0.2498 -0.6322 -0.2408
 2593SOL    HW210144   1.534   5.722   5.433  0.0907 -0.7566  0.3551
 2593SOL    HW310145   1.599   5.625   5.337 -1.3025 -0.0204 -1.3956
 2593SOL    MW410146   1.551   5.641   5.408  0.0462  0.1462  0.3164
 2594SOL     OW10147   5.260   5.481   0.273 -0.4786  0.0397  0.2687
 2594SOL    HW210148   5.343   5.525   0.294 -0.8966  0.4341  1.1369
 2594SOL    HW310149   5.274   5.445   0.186  0.4549  0.4864  0.2176
 2594SOL    MW410150   5.273   5.482   0.264  0.2717  0.2369  0.4742
 2595SOL     OW10151   0.073   3.587   5.545 -0.2755  0.1054  0.6069
 2595SOL    HW210152   0.155   3.634   5.534  1.3302 -2.3052  1.4830
 2595SOL    HW310153   0.008   3.655   5.564  1.4022  2.1076 -0.4784
 2595SOL    MW410154   0.075   3.602   5.546  0.3091 -0.1308  0.1912
 2596SOL     OW10155   4.323   6.293   5.173 -0.1712  0.2585  0.1685
 2596SOL    HW210156   4.397   6.350   5.190 -0.9010  1.2427  0.1323
 2596SOL    HW310157   4.308   6.300   5.078  0.6653 -1.1841 -0.0997
 2596SOL    MW410158   4.331   6.301   5.163 -0.4965 -0.1948 -0.4614
 2597SOL     OW10159   4.308   4.862   0.991 -0.5049 -0.6149 -0.2790
 2597SOL    HW210160   4.376   4.886   1.054 -0.8518  1.3159 -0.5859
 2597SOL    HW310161   4.270   4.782   1.026  0.8051 -0.8058  0.7774
 2597SOL    MW410162   4.312   4.855   1.004 -0.0144 -0.0780 -0.3224
 2598SOL     OW10163   3.252   2.250   5.322  0.3831 -0.3711 -0.2014
 2598SOL    HW210164   3.213   2.309   5.386 -0.3750  0.8251 -1.7175
 2598SOL    HW310165   3.338   2.288   5.303  0.3329 -0.3510 -0.3887
 2598SOL    MW410166   3.258   2.262   5.328  0.1830 -0.8898  0.0487
 2599SOL     OW10167   4.942   3.983   4.322 -0.1744  0.5032  0.0175
 2599SOL    HW210168   5.019   3.982   4.266 -0.2699  0.1319 -0.1115
 2599SOL    HW310169   4.936   4.073   4.354  2.0058 -0.0553  2.3462
 2599SOL    MW410170   4.952   3.995   4.319  0.3236 -0.3271 -0.3509
 2600SOL     OW10171   0.454   0.878   0.367  0.4328 -0.9031  0.1167
 2600SOL    HW210172   0.518   0.950   0.373  0.2415 -0.6291 -0.9565
 2600SOL    HW310173   0.500   0.803   0.405  0.6767 -0.2444  1.1479
 2600SOL    MW410174   0.469   0.878   0.373  0.1548 -0.4778 -0.0928
 2601SOL     OW10175   4.082   1.320   5.311  0.5046 -0.2933  0.0441
 2601SOL    HW210176   3.995   1.359   5.323  0.5187 -0.1866 -0.1914
 2601SOL    HW310177   4.131   1.345   5.389 -0.5380 -2.7422  1.6180
 2601SOL    MW410178   4.077   1.328   5.323 -0.1840 -0.3298 -0.1326
 2602SOL     OW10179   2.585   4.557   4.176 -0.1412  0.3069  0.1662
 2602SOL    HW210180   2.565   4.570   4.083 -0.2986  0.7161  0.2541
 2602SOL    HW310181   2.616   4.642   4.206  2.0446 -0.3801 -0.0191
 2602SOL    MW410182   2.586   4.570   4.167  0.5241 -0.5835  0.0529
 2603SOL     OW10183   3.170   4.661   4.717 -0.4733 -0.1213  0.2295
 2603SOL    HW210184   3.079   4.635   4.730 -0.9830  0.5831 -1.5686
 2603SOL    HW310185   3.169   4.756   4.732  0.5246 -0.4245  2.6783
 2603SOL    MW410186   3.157   4.670   4.721  0.0497 -0.1120  0.2967
 2604SOL     OW10187   4.108   2.536   2.325 -0.1632  0.0753  0.4923
 2604SOL    HW210188   4.146   2.490   2.250 -0.3095 -0.3440  0.6743
 2604SOL    HW310189   4.095   2.469   2.391 -0.3707  0.3803  0.7675
 2604SOL    MW410190   4.111   2.521   2.324  0.2756  0.7350 -0.7214
 2605SOL     OW10191   3.636   4.145   2.080 -0.0857 -0.6696 -0.7990
 2605SOL    HW210192   3.656   4.114   2.169  0.2051  0.5054 -0.4310
 2605SOL    HW310193   3.644   4.240   2.086 -0.8835 -0.5166 -1.8932
 2605SOL    MW410194   3.640   4.154   2.093  0.3726  0.3379 -0.2203
 2606SOL     OW10195   4.888   0.899   0.659  0.2082 -0.3812 -1.0076
 2606SOL    HW210196   4.910   0.809   0.684 -0.1077 -0.1354  0.1903
 2606SOL    HW310197   4.970   0.934   0.622  1.4305 -0.0380  1.7872
 2606SOL    MW410198   4.902   0.892   0.657 -0.1268 -0.3316  0.8634
 2607SOL     OW10199   6.215   1.800   2.710  0.3125  0.0092 -0.0044
 2607SOL    HW210200   6.264   1.720   2.693  2.1321  1.3749 -1.6336
 2607SOL    HW310201   6.164   1.815   2.630 -0.1154  0.4109  0.3371
 2607SOL    MW410202   6.215   1.791   2.697  1.3055  0.2466 -0.2671
 2608SOL     OW10203   4.835   5.664   6.159  0.3235  0.6553 -0.2083
 2608SOL    HW210204   4.824   5.739   6.218 -0.1871  1.2630 -1.0497
 2608SOL    HW310205   4.870   5.595   6.214 -1.5210  0.7372  1.1375
 2608SOL    MW410206   4.838   5.665   6.174  0.0011 -0.0861 -0.2283
 2609SOL     OW10207   2.241   0.087   3.567 -0.0050 -0.0364 -0.0506
 2609SOL    HW210208   2.315   0.034   3.599  0.5047 -0.9687 -2.5308
 2609SOL    HW310209   2.185   0.024   3.521 -1.9823  0.8099  1.0855
 2609SOL    MW410210   2.244   0.072   3.565 -0.2975 -0.2129  0.1485
 2610SOL     OW10211   3.329   6.027   3.014  0.2114 -0.1931 -0.5302
 2610SOL    HW210212   3.343   6.064   3.102 -1.0765  1.2692 -0.9014
 2610SOL    HW310213   3.260   6.080   2.976 -0.0853 -1.5567 -2.0172
 2610SOL    MW410214   3.322   6.039   3.021  0.1428  0.7684  0.3105
 2611SOL     OW10215   1.488   1.109   6.114 -0.2047  0.1282  0.3540
 2611SOL    HW210216   1.502   1.022   6.152  0.3711  0.9381  2.0855
 2611SOL    HW310217   1.480   1.168   6.189 -0.7065  1.5809 -0.7725
 2611SOL    MW410218   1.489   1.105   6.129  0.1419  0.4704  0.4496
 2612SOL     OW10219   2.067   5.866   5.327 -0.5468  0.1000  0.1807
 2612SOL    HW210220   2.074   5.878   5.422 -2.4078  0.1812  0.3437
 2612SOL    HW310221   2.064   5.955   5.292 -0.9916  0.0821  0.1634
 2612SOL    MW410222   2.068   5.880   5.335 -0.0509 -0.2136  0.7014
 2613SOL     OW10223   5.224   1.511   3.810  0.1440  0.2319  0.4268
 2613SOL    HW210224   5.206   1.476   3.723  1.5223 -0.7217  0.5009
 2613SOL    HW310225   5.277   1.589   3.794  1.1359 -0.4250  0.4163
 2613SOL    MW410226   5.228   1.516   3.796 -0.0994  0.5223  0.6983
 2614SOL     OW10227   1.192   2.227   0.671 -0.3428 -0.4917 -0.3216
 2614SOL    HW210228   1.150   2.196   0.751 -0.2097  0.8581  0.2957
 2614SOL    HW310229   1.125   2.280   0.628 -0.0544 -0.2990 -0.5361
 2614SOL    MW410230   1.177   2.230   0.676 -0.1110 -0.4947  0.3837
 2615SOL     OW10231   5.559   0.475   6.367  0.1982  0.7436  0.2755
 2615SOL    HW210232   5.607   0.526   6.302  0.1875  0.4881  0.0669
 2615SOL    HW310233   5.471   0.511   6.365 -0.0804  0.0440 -0.6020
 2615SOL    MW410234   5.554   0.486   6.358 -0.3941 -0.2337 -0.4055
 2616SOL     OW10235   5.292   2.589   5.248  0.2607 -0.7748 -0.6120
 2616SOL    HW210236   5.308   2.627   5.162  1.1189 -0.4227 -0.3122
 2616SOL    HW310237   5.320   2.657   5.310 -1.4713 -0.5301 -0.0228
 2616SOL    MW410238   5.298   2.603   5.245 -0.1313  0.3010 -0.1186
 2617SOL     OW10239   6.295   3.965   3.879  0.4793 -0.4587  0.7578
 2617SOL    HW210240   6.350   3.893   3.846  1.2784  0.9833 -1.2407
 2617SOL    HW310241   6.293   4.028   3.807  0.1706  1.7264  2.5891
 2617SOL    MW410242   6.302   3.964   3.865 -0.3406 -1.0509 -0.6806
 2618SOL     OW10243   5.076   3.669   6.208  0.2463  0.6138 -0.7168
 2618SOL    HW210244   5.131   3.598   6.239 -0.6229  0.8467  1.5611
 2618SOL    HW310245   4.990   3.629   6.193 -0.0708  1.0297 -0.0702
 2618SOL    MW410246   5.072   3.655   6.210 -0.2606  0.5244  0.5600
 2619SOL     OW10247   5.720   0.087   3.467 -0.2941  0.6149  0.5042
 2619SOL    HW210248   5.634   0.063   3.501 -1.5219  0.2384 -2.5728
 2619SOL    HW310249   5.769   0.005   3.465 -0.6979  0.3821  0.0773
 2619SOL    MW410250   5.715   0.073   3.471  0.0538 -0.1897  0.3488
 2620SOL     OW10251   1.384   0.458   3.571 -0.0906 -0.6213  0.1179
 2620SOL    HW210252   1.295   0.491   3.556  0.1589  0.4883  0.9593
 2620SOL    HW310253   1.410   0.496   3.655  0.9156 -1.5226  0.2396
 2620SOL    MW410254   1.376   0.467   3.580 -0.3318 -0.7355 -0.4781
 2621SOL     OW10255   2.041   5.282   4.210  0.1015 -0.1648 -0.1914
 2621SOL    HW210256   2.029   5.244   4.123 -0.7827 -1.6048  0.5308
 2621SOL    HW310257   1.960   5.332   4.225 -0.0146 -0.4167  0.0338
 2621SOL    MW410258   2.028   5.284   4.201 -0.8523 -0.4164 -0.3306
 2622SOL     OW10259   3.136   0.924   5.900  0.2267  0.0758  0.1827
 2622SOL    HW210260   3.218   0.918   5.948  1.1832  2.7576 -0.9073
 2622SOL    HW310261   3.143   0.857   5.832 -0.2987 -2.4035  2.3939
 2622SOL    MW410262   3.148   0.914   5.897  0.1426  0.2183  0.5722
 2623SOL     OW10263   2.554   4.086   0.805  0.3664  0.4067 -0.1095
 2623SOL    HW210264   2.629   4.086   0.746 -1.3370  0.5015 -2.3862
 2623SOL    HW310265   2.521   3.996   0.802 -0.6602  0.7879 -0.5600
 2623SOL    MW410266   2.559   4.074   0.797 -0.1842  0.5647  0.3377
 2624SOL     OW10267   2.054   5.448   1.128 -0.3028  0.5254  0.1217
 2624SOL    HW210268   2.089   5.361   1.110  0.4951  0.8026  0.2581
 2624SOL    HW310269   2.091   5.472   1.213 -1.4411  0.5347  0.6186
 2624SOL    MW410270   2.064   5.440   1.137 -0.6108  0.3572 -0.3305
 2625SOL     OW10271   0.619   5.507   6.402 -0.1195 -0.2554  0.2264
 2625SOL    HW210272   0.556   5.561   6.448 -0.6358  0.2928 -1.0607
 2625SOL    HW310273   0.693   5.566   6.384 -0.0897 -0.3508  0.0229
 2625SOL    MW410274   0.621   5.522   6.406  0.5160 -0.2259  0.1933
 2626SOL     OW10275   6.001   1.383   6.152  0.3823  0.6846 -0.4668
 2626SOL    HW210276   6.012   1.474   6.127 -1.1857  0.5143 -2.0180
 2626SOL    HW310277   5.961   1.386   6.239  0.8119  1.4503 -0.2922
 2626SOL    MW410278   5.997   1.395   6.160 -0.2563  0.9752 -0.2881
 2627SOL     OW10279   3.244   4.460   3.998 -0.2120 -0.2826  0.1101
 2627SOL    HW210280   3.170   4.489   3.944 -0.0930  0.9683  0.5835
 2627SOL    HW310281   3.235   4.511   4.079  0.7249 -0.7003  0.4832
 2627SOL    MW410282   3.233   4.471   4.002  0.1315 -0.0078 -0.3913
 2628SOL     OW10283   1.793   4.773   0.275 -0.3377 -0.0311  0.1456
 2628SOL    HW210284   1.727   4.779   0.345  1.7817  1.0769  2.2051
 2628SOL    HW310285   1.838   4.691   0.292 -1.6665 -1.2284 -1.7985
 2628SOL    MW410286   1.790   4.763   0.287 -0.0210 -0.4181 -0.0260
 2629SOL     OW10287   4.071   3.598   2.216 -0.3115  0.3678  0.2105
 2629SOL    HW210288   4.089   3.692   2.222 -0.8078  0.4496  0.4825
 2629SOL    HW310289   4.146   3.556   2.259 -0.6606  0.6936  1.1573
 2629SOL    MW410290   4.083   3.605   2.223  0.0390 -0.2996 -0.2237
 2630SOL     OW10291   3.260   2.118   1.171  0.1282  0.0096 -0.0340
 2630SOL    HW210292   3.263   2.098   1.077 -0.7315  1.2824 -0.3544
 2630SOL    HW310293   3.318   2.053   1.210  0.4180 -0.6270 -1.4294
 2630SOL    MW410294   3.268   2.107   1.163  0.1734 -0.2155 -0.1531
 2631SOL     OW10295   3.817   3.756   1.351 -0.9866  0.1402  0.3108
 2631SOL    HW210296   3.753   3.772   1.281 -0.2217  0.7710 -0.2630
 2631SOL    HW310297   3.853   3.842   1.370 -0.4894 -0.1748  0.8188
 2631SOL    MW410298   3.813   3.769   1.344  0.4222  0.2149  0.1815
 2632SOL     OW10299   4.953   2.134   3.491  0.1342  0.2544  0.3045
 2632SOL    HW210300   4.959   2.211   3.546  0.9301  1.2246 -1.0694
 2632SOL    HW310301   5.038   2.129   3.447 -0.3431 -0.6604 -0.5681
 2632SOL    MW410302   4.965   2.143   3.492 -0.1367 -0.3420  0.3519
 2633SOL     OW10303   4.144   6.183   4.152  0.1972  0.4409 -0.1817
 2633SOL    HW210304   4.144   6.273   4.118 -0.7528  0.3543 -0.4276
 2633SOL    HW310305   4.099   6.190   4.237  0.4400  0.2507 -0.0353
 2633SOL    MW410306   4.138   6.196   4.159  0.3001 -0.1375  0.0773
 2634SOL     OW10307   1.406   5.398   1.691  0.0604 -0.4688  0.1980
 2634SOL    HW210308   1.326   5.347   1.679  0.2697 -0.3530 -2.0595
 2634SOL    HW310309   1.452   5.353   1.762 -1.7822 -0.7752  1.2590
 2634SOL    MW410310   1.401   5.385   1.699 -0.5688  0.6816 -0.0477
 2635SOL     OW10311   2.914   3.768   5.182 -0.2852  0.9551 -0.3039
 2635SOL    HW210312   3.004   3.762   5.215 -1.0394 -0.8715  1.6688
 2635SOL    HW310313   2.903   3.690   5.129 -1.4164 -0.2409  1.5719
 2635SOL    MW410314   2.924   3.757   5.180  0.2001 -0.5097  0.9352
 2636SOL     OW10315   4.976   1.818   6.336 -0.2765 -0.2470  0.1779
 2636SOL    HW210316   4.943   1.895   6.290 -0.4144 -0.1053  0.5097
 2636SOL    HW310317   4.915   1.805   6.408  1.1653  0.8772  1.6616
 2636SOL    MW410318   4.964   1.826   6.339  0.0783 -0.1650 -0.4743
 2637SOL     OW10319   1.949   1.273   5.327  0.0838  0.0271  0.4926
 2637SOL    HW210320   1.904   1.271   5.411  1.2574 -1.3091  1.1310
 2637SOL    HW310321   2.003   1.352   5.331  0.6439 -0.3843  1.2855
 2637SOL    MW410322   1.950   1.283   5.338  0.4553 -0.0070 -0.2571
 2638SOL     OW10323   2.150   3.177   3.193 -0.2083 -0.2246  0.1662
 2638SOL    HW210324   2.212   3.185   3.266 -0.8817 -0.1431  0.7384
 2638SOL    HW310325   2.074   3.228   3.221 -0.0321  0.7637 -1.0843
 2638SOL    MW410326   2.148   3.185   3.207 -0.3488  0.2575  0.0737
 2639SOL     OW10327   3.135   2.993   6.319  0.3935 -0.5739 -0.0587
 2639SOL    HW210328   3.102   3.077   6.350  1.9673 -0.7387  2.2648
 2639SOL    HW310329   3.191   3.014   6.245  1.6084  0.6055  1.1379
 2639SOL    MW410330   3.138   3.007   6.313  0.4760  0.1385  0.4009
 2640SOL     OW10331   6.378   6.102   3.232 -0.3274  0.0565 -0.0670
 2640SOL    HW210332   6.329   6.117   3.313 -0.8467  0.1516 -0.3936
 2640SOL    HW310333   6.457   6.155   3.242 -0.5380  0.3181  0.2445
 2640SOL    MW410334   6.382   6.111   3.244  0.4007  0.0459  0.0788
 2641SOL     OW10335   2.256   0.877   0.562  0.1274 -0.3388  0.4037
 2641SOL    HW210336   2.245   0.791   0.603 -2.1015 -0.6160 -0.6217
 2641SOL    HW310337   2.301   0.858   0.480  0.9007 -0.3259  0.8190
 2641SOL    MW410338   2.261   0.863   0.557 -0.0237 -0.3020 -0.0739
 2642SOL     OW10339   3.355   0.194   6.074  0.4295 -0.0101 -0.5953
 2642SOL    HW210340   3.261   0.187   6.087  0.2138 -0.4446 -2.2540
 2642SOL    HW310341   3.391   0.115   6.115 -0.1839 -1.1308 -2.1419
 2642SOL    MW410342   3.348   0.183   6.081 -0.1455 -0.4231  0.3187
 2643SOL     OW10343   3.342   0.025   1.699  0.4160 -0.2899  0.1761
 2643SOL    HW210344   3.273   0.006   1.636 -0.2352 -0.6015  0.9686
 2643SOL    HW310345   3.302   0.008   1.785  0.7815  1.6189  0.7761
 2643SOL    MW410346   3.328   0.020   1.702  0.1053  0.3249 -0.0353
 2644SOL     OW10347   2.827   4.314   4.340 -0.4920  0.2681  0.1118
 2644SOL    HW210348   2.833   4.395   4.389  0.6264 -0.1104  0.6310
 2644SOL    HW310349   2.737   4.313   4.305 -0.8636  1.1862  1.0042
 2644SOL    MW410350   2.816   4.324   4.342  0.4778  0.0576 -0.2065
 2645SOL     OW10351   3.505   0.422   1.155  0.3096  0.3521  0.0267
 2645SOL    HW210352   3.500   0.467   1.240 -1.3628  1.0474 -0.3994
 2645SOL    HW310353   3.522   0.491   1.092  0.7702 -0.0570 -0.3005
 2645SOL    MW410354   3.507   0.437   1.158 -0.5575  0.0533  0.0759
 2646SOL     OW10355   4.346   4.144   5.420 -0.6280  0.3401 -0.1349
 2646SOL    HW210356   4.262   4.188   5.410 -0.2002  0.6535 -3.3156
 2646SOL    HW310357   4.397   4.171   5.343  1.0107 -2.7906 -0.3090
 2646SOL    MW410358   4.342   4.153   5.408  0.5107 -0.1237  0.5174
 2647SOL     OW10359   5.739   2.280   1.139 -0.6235 -0.1331 -0.1085
 2647SOL    HW210360   5.774   2.324   1.061 -0.8866 -0.1237 -0.2219
 2647SOL    HW310361   5.789   2.199   1.146 -1.8836 -1.0714 -1.3939
 2647SOL    MW410362   5.750   2.275   1.130 -0.1031 -0.0263 -0.1671
 2648SOL     OW10363   0.678   6.124   1.569 -0.7881  0.4142  0.2384
 2648SOL    HW210364   0.617   6.121   1.495 -1.8701  1.2195  1.0649
 2648SOL    HW310365   0.664   6.210   1.609 -1.9376 -0.8377  2.7770
 2648SOL    MW410366   0.668   6.135   1.565  0.0106 -0.2686 -1.0615
 2649SOL     OW10367   5.987   0.500   0.036  0.1641 -0.2840  0.3423
 2649SOL    HW210368   6.062   0.497   0.096 -0.9009 -1.0566  1.6727
 2649SOL    HW310369   5.920   0.548   0.085 -0.9699 -1.5470  0.0659
 2649SOL    MW410370   5.988   0.506   0.050 -0.3065  0.1960  0.1837
 2650SOL     OW10371   4.627   4.676   5.497 -0.2569  0.1075 -0.3739
 2650SOL    HW210372   4.580   4.758   5.515 -0.2883 -0.1548  0.8595
 2650SOL    HW310373   4.558   4.610   5.494 -0.1503  0.0016 -0.4480
 2650SOL    MW410374   4.611   4.678   5.499 -0.0545  0.1158  0.3391
 2651SOL     OW10375   3.113   6.271   2.296 -0.3892  0.2143  0.6136
 2651SOL    HW210376   3.186   6.220   2.330 -0.6618 -0.0149  0.8661
 2651SOL    HW310377   3.153   6.352   2.263  0.0940 -0.3400 -0.1861
 2651SOL    MW410378   3.127   6.275   2.296  0.4004  0.1418 -0.2540
 2652SOL     OW10379   0.271   2.024   4.745 -0.3196  0.2971 -0.0848
 2652SOL    HW210380   0.195   1.965   4.746 -0.4898  0.5147  0.6700
 2652SOL    HW310381   0.242   2.101   4.793  0.2915  0.5030 -0.0409
 2652SOL    MW410382   0.258   2.026   4.751  0.4733  0.0756 -0.1253
 2653SOL     OW10383   2.457   2.834   4.554 -0.6319  0.6257 -0.6088
 2653SOL    HW210384   2.378   2.887   4.555 -0.6930  0.5358 -0.1255
 2653SOL    HW310385   2.452   2.782   4.635 -1.2525 -1.1356 -1.7166
 2653SOL    MW410386   2.446   2.834   4.565  0.0726  0.2753 -0.3414
 2654SOL     OW10387   2.819   4.416   0.621 -0.1791 -0.1871 -0.2392
 2654SOL    HW210388   2.755   4.474   0.663  0.1577 -0.1274  0.2101
 2654SOL    HW310389   2.888   4.406   0.687 -0.1809 -1.0131 -0.3571
 2654SOL    MW410390   2.819   4.422   0.636  0.2458  0.2660  0.0994
 2655SOL     OW10391   4.743   3.149   1.914  0.1573 -0.0882  0.0514
 2655SOL    HW210392   4.838   3.152   1.915  0.1325  0.6055  0.7285
 2655SOL    HW310393   4.722   3.057   1.894  0.9735 -0.5265  1.1317
 2655SOL    MW410394   4.752   3.137   1.912  0.2633 -0.1366  0.1216
 2656SOL     OW10395   4.438   4.730   4.130  0.0707  0.4573  0.1127
 2656SOL    HW210396   4.458   4.774   4.213  0.5380 -0.3413  0.4432
 2656SOL    HW310397   4.343   4.736   4.122  0.0764  1.0106  0.4415
 2656SOL    MW410398   4.428   4.736   4.140  0.2925  0.1253  0.3147
 2657SOL     OW10399   0.070   4.794   0.285 -0.4518  0.6540 -0.1741
 2657SOL    HW210400   0.086   4.879   0.243 -1.8433  1.7915  1.4818
 2657SOL    HW310401   0.148   4.780   0.340 -0.0234  0.6387 -0.7733
 2657SOL    MW410402   0.083   4.804   0.287 -0.1895 -0.2445 -0.3340
 2658SOL     OW10403   0.925   4.655   3.653  0.0077 -0.2438 -0.4904
 2658SOL    HW210404   0.847   4.633   3.602 -1.0598  0.0424  0.9508
 2658SOL    HW310405   0.914   4.607   3.735  0.4079  1.2679  0.4859
 2658SOL    MW410406   0.913   4.646   3.657 -0.3407 -0.9416 -0.3899
 2659SOL     OW10407   3.422   0.713   0.206 -0.2222 -0.3690 -0.1741
 2659SOL    HW210408   3.511   0.718   0.240 -0.0498  1.0931 -0.7678
 2659SOL    HW310409   3.431   0.706   0.111 -0.7394 -1.4603 -0.1610
 2659SOL    MW410410   3.435   0.713   0.198 -0.0658  0.2202  0.5543
 2660SOL     OW10411   6.071   6.172   2.882 -0.2540 -0.1127 -0.3254
 2660SOL    HW210412   6.106   6.240   2.824 -0.8533 -0.4491 -1.1102
 2660SOL    HW310413   6.147   6.139   2.929  0.3686 -0.2835 -1.4194
 2660SOL    MW410414   6.086   6.177   2.880 -0.1648  0.8394 -0.4951
 2661SOL     OW10415   4.134   5.643   6.203  0.0893 -0.2822 -0.0283
 2661SOL    HW210416   4.134   5.554   6.236 -0.5750 -0.5607 -0.7368
 2661SOL    HW310417   4.128   5.634   6.108 -0.6066  0.5153 -0.0790
 2661SOL    MW410418   4.133   5.630   6.195  0.2328 -0.2993  0.2818
 2662SOL     OW10419   4.619   4.967   2.249 -0.2494  0.3221  0.0829
 2662SOL    HW210420   4.650   4.879   2.273 -0.0866 -0.0554 -1.3883
 2662SOL    HW310421   4.694   5.007   2.204 -0.9286  0.4735 -0.9600
 2662SOL    MW410422   4.633   4.960   2.246 -0.5442 -0.3480 -0.2302
 2663SOL     OW10423   4.495   5.634   4.881  0.1505 -0.5660  0.0936
 2663SOL    HW210424   4.465   5.558   4.831  3.1724 -1.6555 -0.2453
 2663SOL    HW310425   4.501   5.704   4.816 -2.6445  0.0901  0.4063
 2663SOL    MW410426   4.491   5.633   4.866 -0.0427 -0.1097  0.2927
 2664SOL     OW10427   5.838   1.193   2.696  0.3405 -0.5429  0.6351
 2664SOL    HW210428   5.928   1.167   2.678  0.3441 -1.3310  1.7075
 2664SOL    HW310429   5.843   1.287   2.714  0.8170 -0.4207 -0.0865
 2664SOL    MW410430   5.850   1.202   2.696 -0.2200  0.1076 -0.2215
 2665SOL     OW10431   0.989   3.458   4.160  0.5741 -0.3089  0.2757
 2665SOL    HW210432   1.012   3.368   4.139 -0.0044  0.0804 -2.4645
 2665SOL    HW310433   1.051   3.511   4.109 -0.7581  0.7926 -0.2838
 2665SOL    MW410434   1.000   3.453   4.150 -0.2054 -0.0458  0.4749
 2666SOL     OW10435   4.930   3.483   5.995  0.4664  0.3959  0.2286
 2666SOL    HW210436   4.887   3.456   5.913 -2.3745  3.3196  0.5635
 2666SOL    HW310437   4.893   3.426   6.062  0.2627  0.1744 -0.0739
 2666SOL    MW410438   4.919   3.472   5.993  0.6761 -0.0822  0.2261
 2667SOL     OW10439   0.675   1.059   0.393  0.0831  0.2507 -0.4265
 2667SOL    HW210440   0.715   1.084   0.477 -0.0150 -1.6160  0.2253
 2667SOL    HW310441   0.749   1.040   0.336  0.1881 -1.2152  0.1489
 2667SOL    MW410442   0.690   1.060   0.397  0.2091  0.0586  0.0172
 2668SOL     OW10443   4.583   3.058   4.513  0.0328 -0.1700  0.7142
 2668SOL    HW210444   4.556   2.974   4.551 -1.2520 -0.2068 -0.1921
 2668SOL    HW310445   4.675   3.046   4.490 -0.4339 -1.7893 -0.5048
 2668SOL    MW410446   4.591   3.045   4.515 -0.3470 -0.1723  0.0571
 2669SOL     OW10447   5.685   3.865   5.431  0.3106  0.1607 -0.4946
 2669SOL    HW210448   5.725   3.948   5.407  1.7559 -0.4666 -0.3342
 2669SOL    HW310449   5.736   3.834   5.505 -1.0513 -0.2475  0.3029
 2669SOL    MW410450   5.697   3.872   5.437  0.1889  0.1859 -0.2437
 2670SOL     OW10451   2.849   0.716   1.905 -0.5514  0.2824 -0.5397
 2670SOL    HW210452   2.939   0.685   1.919 -0.7386 -0.4815 -0.9710
 2670SOL    HW310453   2.838   0.716   1.810 -1.7824 -1.9929 -0.4728
 2670SOL    MW410454   2.860   0.712   1.894 -0.4223  0.6092 -0.3617
 2671SOL     OW10455   2.841   4.451   4.081 -0.1286 -0.6236  0.0227
 2671SOL    HW210456   2.762   4.498   4.106  0.7832  0.2434  1.4404
 2671SOL    HW310457   2.905   4.475   4.148  1.4472 -0.9917 -1.2920
 2671SOL    MW410458   2.839   4.460   4.093 -0.4893  0.3867 -0.5313
 2672SOL     OW10459   3.611   5.697   0.214 -0.3683  0.4437 -0.2373
 2672SOL    HW210460   3.628   5.771   0.273  0.5313  3.1140 -3.5616
 2672SOL    HW310461   3.516   5.698   0.202 -0.3468  1.1561 -0.3726
 2672SOL    MW410462   3.601   5.707   0.220 -0.2007  0.4335 -0.5153
 2673SOL     OW10463   1.811   6.075   2.231 -0.4216  0.2594  0.0718
 2673SOL    HW210464   1.872   6.050   2.300 -1.6048 -1.2345  0.6490
 2673SOL    HW310465   1.729   6.093   2.277 -0.8252  0.7577 -0.8139
 2673SOL    MW410466   1.808   6.074   2.246 -0.1242 -0.1123 -0.1686
 2674SOL     OW10467   1.203   6.137   1.446 -0.1332 -0.0077  0.2757
 2674SOL    HW210468   1.134   6.093   1.496  0.3961  1.4522  2.4841
 2674SOL    HW310469   1.282   6.126   1.500  0.5107  1.5282 -0.2968
 2674SOL    MW410470   1.205   6.130   1.460 -0.0573  0.1429 -0.6948
 2675SOL     OW10471   4.768   3.641   2.837  0.1318  0.5276 -0.1036
 2675SOL    HW210472   4.727   3.715   2.882  0.9073  0.4955  0.6988
 2675SOL    HW310473   4.785   3.673   2.748 -1.0266  0.7445 -0.2513
 2675SOL    MW410474   4.765   3.655   2.831 -0.2228 -0.5456  0.6953
 2676SOL     OW10475   0.920   1.865   4.205  0.1811  0.3077 -0.1742
 2676SOL    HW210476   1.008   1.858   4.244 -0.2997 -0.7241  0.7832
 2676SOL    HW310477   0.918   1.952   4.165  1.3034  0.7298  0.6421
 2676SOL    MW410478   0.932   1.875   4.205 -0.2516  0.0030  0.1730
 2677SOL     OW10479   1.539   1.633   3.434 -0.2289  0.4497 -0.4831
 2677SOL    HW210480   1.503   1.713   3.471  1.1086  1.5413 -1.4400
 2677SOL    HW310481   1.484   1.616   3.357 -0.5333  0.4273 -0.2618
 2677SOL    MW410482   1.527   1.641   3.429  0.1016  0.6574 -0.5816
 2678SOL     OW10483   3.217   2.091   4.322 -0.4558  0.2441 -0.3645
 2678SOL    HW210484   3.305   2.090   4.360 -1.0407  1.4225  1.1122
 2678SOL    HW310485   3.228   2.137   4.239  0.3808  0.0355 -0.3841
 2678SOL    MW410486   3.230   2.097   4.316 -0.5997 -0.3023 -0.4457
 2679SOL     OW10487   4.798   5.544   0.946  0.3223  0.2045  0.0532
 2679SOL    HW210488   4.735   5.533   1.017 -1.1138 -0.3516 -1.2621
 2679SOL    HW310489   4.875   5.494   0.974 -0.9496 -1.6670  0.3566
 2679SOL    MW410490   4.800   5.536   0.959  0.3216 -0.2598 -0.3148
 2680SOL     OW10491   2.206   5.756   6.086 -0.2804 -0.0728 -0.2537
 2680SOL    HW210492   2.249   5.842   6.087 -0.3485 -0.0048 -1.5723
 2680SOL    HW310493   2.261   5.702   6.031 -1.5697 -0.1427 -1.5330
 2680SOL    MW410494   2.219   5.760   6.079  0.3728 -0.1373  0.1118
 2681SOL     OW10495   5.211   6.110   1.507 -0.0008 -0.0284 -0.1967
 2681SOL    HW210496   5.204   6.178   1.440  0.8881  0.3349  0.0680
 2681SOL    HW310497   5.221   6.159   1.589  1.6146 -0.4665 -0.1103
 2681SOL    MW410498   5.211   6.126   1.509 -0.3058 -0.2632  0.4326
 2682SOL     OW10499   5.072   1.305   4.859  0.0774  0.0599  0.3244
 2682SOL    HW210500   5.123   1.228   4.836  1.4044  0.2655  2.3521
 2682SOL    HW310501   5.136   1.367   4.893 -1.1362  1.5698 -0.0317
 2682SOL    MW410502   5.087   1.303   4.860  0.0671  0.1311 -0.0419
 2683SOL     OW10503   4.751   6.253   2.882  0.5528 -0.5517  0.2034
 2683SOL    HW210504   4.785   6.328   2.834  0.7728 -0.3543  0.6639
 2683SOL    HW310505   4.809   6.244   2.957 -0.3542 -0.2625  0.9551
 2683SOL    MW410506   4.763   6.262   2.885 -0.7417  0.5301 -0.5896
 2684SOL     OW10507   1.448   6.137   2.638  0.2632 -0.1925 -0.5829
 2684SOL    HW210508   1.509   6.173   2.702  1.0437  0.1492 -1.4906
 2684SOL    HW310509   1.502   6.076   2.586 -0.5728 -1.1828 -0.3224
 2684SOL    MW410510   1.463   6.134   2.640 -0.6173  0.5291  0.5976
 2685SOL     OW10511   0.600   1.562   1.287 -0.7542  0.5197  0.0897
 2685SOL    HW210512   0.563   1.650   1.290 -0.2907  0.8227 -1.7237
 2685SOL    HW310513   0.684   1.569   1.332  1.1493  2.0746 -3.3358
 2685SOL    MW410514   0.606   1.575   1.293  0.8592 -0.4651 -0.0585
 2686SOL     OW10515   4.924   3.946   4.945  0.0675 -0.3878  0.1971
 2686SOL    HW210516   5.006   3.899   4.962  0.9247  0.8346 -0.4530
 2686SOL    HW310517   4.948   4.019   4.889 -1.3700  0.3810  0.5090
 2686SOL    MW410518   4.938   3.949   4.940 -0.2910  0.1107  0.5671
 2687SOL     OW10519   3.906   3.662   4.490  0.2840 -0.3011  0.1404
 2687SOL    HW210520   3.867   3.731   4.543 -2.3584 -2.1968  0.8440
 2687SOL    HW310521   3.849   3.655   4.413  1.4401 -0.6573 -0.7224
 2687SOL    MW410522   3.894   3.670   4.487 -0.4495 -0.2474  0.1289
 2688SOL     OW10523   4.388   2.025   4.091 -0.3019 -0.2585 -0.3762
 2688SOL    HW210524   4.412   2.056   4.004  2.0825 -0.0697  0.2784
 2688SOL    HW310525   4.377   2.105   4.143  0.3931 -0.4023 -0.0030
 2688SOL    MW410526   4.389   2.040   4.086 -0.3422 -0.0869  0.3311
 2689SOL     OW10527   3.597   4.758   4.724  0.3379  0.1207 -0.4076
 2689SOL    HW210528   3.530   4.699   4.690 -0.1472  0.5210 -0.1567
 2689SOL    HW310529   3.566   4.845   4.701  0.1263  0.3891  0.8206
 2689SOL    MW410530   3.584   4.762   4.716 -0.0776  0.0683  0.0069
 2690SOL     OW10531   4.059   2.362   0.062 -0.5579  0.0765  0.3731
 2690SOL    HW210532   4.044   2.450   0.029  1.1739  0.0920 -0.4922
 2690SOL    HW310533   4.042   2.304  -0.012 -0.1705 -0.1730  0.4704
 2690SOL    MW410534   4.055   2.366   0.048 -0.0956 -0.5424  0.5258
 2691SOL     OW10535   1.276   2.719   1.681  0.0376  0.2873 -0.1057
 2691SOL    HW210536   1.252   2.769   1.603  2.4204 -0.5942 -1.4730
 2691SOL    HW310537   1.229   2.636   1.671  0.3458  0.1709 -0.6126
 2691SOL    MW410538   1.266   2.715   1.670  0.0690  0.6460 -0.2570
 2692SOL     OW10539   1.676   4.414   0.726 -0.7070  0.5404 -0.2611
 2692SOL    HW210540   1.697   4.331   0.682 -1.5764  0.5210 -0.6665
 2692SOL    HW310541   1.593   4.396   0.772 -0.9823  1.2225 -0.4818
 2692SOL    MW410542   1.668   4.400   0.726 -0.0548 -0.6951 -0.1243
 2693SOL     OW10543   1.300   6.092   5.804 -0.1241  0.4124 -0.0386
 2693SOL    HW210544   1.246   6.132   5.872 -0.6588  0.8122 -0.6943
 2693SOL    HW310545   1.384   6.137   5.811 -0.6779  1.5805 -0.6828
 2693SOL    MW410546   1.304   6.103   5.814  0.0991 -0.5364  0.1814
 2694SOL     OW10547   0.332   5.486   1.168  0.6160 -0.1852  0.7063
 2694SOL    HW210548   0.270   5.558   1.177  1.1130  0.9723 -3.1838
 2694SOL    HW310549   0.280   5.407   1.176 -0.7969  0.7083  0.5702
 2694SOL    MW410550   0.317   5.485   1.170 -0.0561  0.6380 -0.3599
 2695SOL     OW10551   6.157   2.896   5.351 -0.1973  0.0983  0.1317
 2695SOL    HW210552   6.189   2.896   5.261 -0.0743 -1.4638  0.1504
 2695SOL    HW310553   6.081   2.955   5.350 -0.8172 -0.6817 -1.2260
 2695SOL    MW410554   6.151   2.904   5.339 -0.0020 -0.3914 -0.3726
 2696SOL     OW10555   1.097   4.179   2.818 -1.0686  0.1314  0.1285
 2696SOL    HW210556   1.115   4.252   2.759  0.2261 -0.6753 -0.5170
 2696SOL    HW310557   1.142   4.104   2.778 -0.8226 -0.6077  1.7236
 2696SOL    MW410558   1.106   4.179   2.805  0.6438  0.0163  0.1270
 2697SOL     OW10559   2.239   4.848   3.545  0.3293 -0.5534  0.0691
 2697SOL    HW210560   2.187   4.777   3.507  0.5053 -0.4889 -0.2971
 2697SOL    HW310561   2.178   4.921   3.551  0.4556 -0.3725 -0.6832
 2697SOL    MW410562   2.224   4.848   3.541 -0.4204 -0.1366  0.5011
 2698SOL     OW10563   4.365   3.785   1.678  0.1194  0.4004 -0.0156
 2698SOL    HW210564   4.286   3.732   1.670  0.0985  0.4726 -0.3060
 2698SOL    HW310565   4.350   3.860   1.621  0.9760 -0.2960 -1.2339
 2698SOL    MW410566   4.353   3.787   1.670  0.9120 -0.3068  0.1069
 2699SOL     OW10567   5.285   5.865   5.311 -0.4157  0.1931  0.7919
 2699SOL    HW210568   5.320   5.935   5.366 -0.7955  0.1327  1.1197
 2699SOL    HW310569   5.359   5.805   5.297 -0.8451 -1.0293  3.1992
 2699SOL    MW410570   5.299   5.866   5.316 -0.1641  0.1877  0.0608
 2700SOL     OW10571   5.901   3.312   6.301  0.0069 -0.3316  0.1706
 2700SOL    HW210572   5.911   3.344   6.211 -1.0151 -0.4358  0.0069
 2700SOL    HW310573   5.819   3.352   6.332  0.7652  0.3623  1.3489
 2700SOL    MW410574   5.891   3.322   6.293 -0.2932 -0.1304 -0.0999
 2701SOL     OW10575   0.101   0.445   2.857 -0.7783 -0.1832 -0.3693
 2701SOL    HW210576   0.069   0.534   2.842  2.1277  0.7224 -2.0143
 2701SOL    HW310577   0.078   0.426   2.948 -0.1099  2.9102  0.5637
 2701SOL    MW410578   0.094   0.454   2.867  0.3834 -0.0845  0.6045
 2702SOL     OW10579   4.872   4.870   1.508  0.3115 -0.2181 -0.2656
 2702SOL    HW210580   4.807   4.799   1.501  0.0360  0.0752 -0.6901
 2702SOL    HW310581   4.906   4.861   1.597 -0.1606 -0.5070 -0.1082
 2702SOL    MW410582   4.868   4.859   1.519 -0.0561  0.9396  0.3152
 2703SOL     OW10583   0.295   0.999   3.318 -0.0941  0.2848 -0.2929
 2703SOL    HW210584   0.278   0.997   3.224  0.8186 -0.0581 -0.4564
 2703SOL    HW310585   0.274   0.911   3.349  1.2399 -0.1221 -0.4843
 2703SOL    MW410586   0.290   0.987   3.310  0.0539 -0.0672 -0.2530
 2704SOL     OW10587   1.956   1.161   6.129 -0.1295 -0.5261 -0.1344
 2704SOL    HW210588   1.985   1.070   6.130  2.1319  0.1205 -0.9847
 2704SOL    HW310589   2.014   1.206   6.190 -1.4085  0.3405  0.5072
 2704SOL    MW410590   1.967   1.155   6.137 -0.0467 -0.3427  0.1849
 2705SOL     OW10591   4.513   4.676   3.193  0.2943  0.1640  0.8622
 2705SOL    HW210592   4.531   4.753   3.139  1.4094  0.5922  1.8027
 2705SOL    HW310593   4.421   4.684   3.218  0.0035  0.4119 -0.2379
 2705SOL    MW410594   4.504   4.687   3.189  0.1749 -0.1941 -0.8695
 2706SOL     OW10595   0.463   4.238   5.608  0.3109 -0.2527  0.2834
 2706SOL    HW210596   0.476   4.174   5.678 -0.7786 -2.4023 -1.3760
 2706SOL    HW310597   0.551   4.266   5.585  0.8850 -1.6652  0.6383
 2706SOL    MW410598   0.476   4.233   5.614 -0.3055  0.5340  0.2880
 2707SOL     OW10599   5.002   1.338   4.585  0.0075  0.2971 -0.0408
 2707SOL    HW210600   5.032   1.354   4.675  0.4652 -0.6846 -0.0066
 2707SOL    HW310601   4.923   1.391   4.577 -0.1317  0.2811  1.0041
 2707SOL    MW410602   4.995   1.347   4.596 -0.4015 -0.2266 -1.0000
 2708SOL     OW10603   5.743   4.992   3.650  0.4816 -0.2574 -0.8790
 2708SOL    HW210604   5.743   5.087   3.663  0.4009  0.2611 -3.9040
 2708SOL    HW310605   5.656   4.964   3.678  0.6832  0.4291  0.5381
 2708SOL    MW410606   5.732   5.001   3.656  0.3556 -0.3490 -0.3118
 2709SOL     OW10607   4.287   2.712   0.601 -0.6043 -0.3931 -0.3928
 2709SOL    HW210608   4.298   2.664   0.683 -0.9316 -1.2245 -0.8249
 2709SOL    HW310609   4.223   2.661   0.552  0.9425 -0.9264 -1.9450
 2709SOL    MW410610   4.280   2.699   0.605  0.1238  0.3545  0.2544
 2710SOL     OW10611   3.438   5.607   0.869  0.1881  0.8406 -0.0384
 2710SOL    HW210612   3.517   5.593   0.816  0.2986 -2.4918  0.8059
 2710SOL    HW310613   3.467   5.593   0.959 -1.0823  0.9893  0.4147
 2710SOL    MW410614   3.453   5.603   0.874  0.2233 -0.4106  0.2540
 2711SOL     OW10615   4.035   3.241   2.157  0.4063  0.3152 -0.0031
 2711SOL    HW210616   3.958   3.203   2.114  1.1413  0.2886 -1.3539
 2711SOL    HW310617   4.083   3.284   2.086  2.5327 -1.1220  0.4681
 2711SOL    MW410618   4.031   3.242   2.142 -0.1868  0.4441 -0.5093
 2712SOL     OW10619   0.296   3.278   5.592 -0.3796  0.2584  0.2354
 2712SOL    HW210620   0.330   3.193   5.621 -0.8545  0.3964  1.2556
 2712SOL    HW310621   0.203   3.274   5.611 -0.8573  0.1522 -1.8960
 2712SOL    MW410622   0.288   3.266   5.599  0.2158  0.4083  0.1745
 2713SOL     OW10623   2.447   0.070   1.352  0.5392 -0.3429  0.0542
 2713SOL    HW210624   2.520   0.088   1.411 -0.2635 -0.7990  1.2328
 2713SOL    HW310625   2.397   0.001   1.397  0.9529 -2.1247 -2.0785
 2713SOL    MW410626   2.450   0.063   1.366 -0.0049  0.0078  0.3490
 2714SOL     OW10627   4.242   4.595   4.660  0.2868  0.1563 -0.1375
 2714SOL    HW210628   4.233   4.632   4.572  0.0406  2.7895  0.9113
 2714SOL    HW310629   4.336   4.585   4.673  0.4539  1.6548 -0.0190
 2714SOL    MW410630   4.253   4.599   4.650  0.0323 -0.8383 -0.0817
 2715SOL     OW10631   1.117   5.838   0.948  0.0061  0.1308  0.6122
 2715SOL    HW210632   1.154   5.843   1.036  0.6066 -0.0695  0.3770
 2715SOL    HW310633   1.168   5.901   0.897  0.9825 -1.1466 -0.0401
 2715SOL    MW410634   1.128   5.847   0.953 -0.5922  0.2920  0.2678
 2716SOL     OW10635   6.000   0.607   3.115  0.0461 -0.2521  0.0702
 2716SOL    HW210636   6.030   0.582   3.203 -0.0052 -0.1921  0.1052
 2716SOL    HW310637   5.905   0.594   3.118  0.0829 -0.5449 -0.0744
 2716SOL    MW410638   5.991   0.602   3.127 -0.4180 -0.2604 -0.1696
 2717SOL     OW10639   4.593   0.423   0.741  0.3514 -0.3589 -0.6904
 2717SOL    HW210640   4.522   0.421   0.805  2.1332  1.1627  1.4912
 2717SOL    HW310641   4.567   0.491   0.679  1.4044  3.0650  2.2353
 2717SOL    MW410642   4.580   0.432   0.742  0.1826  1.0645 -0.1063
 2718SOL     OW10643   1.850   0.132   5.375  0.2036  0.0715 -0.0151
 2718SOL    HW210644   1.812   0.098   5.456  1.5578  0.9794  1.0507
 2718SOL    HW310645   1.785   0.194   5.342 -0.1138  0.1220  0.6903
 2718SOL    MW410646   1.837   0.136   5.381 -0.0847  0.3320  0.3091
 2719SOL     OW10647   4.841   0.972   3.986  0.0562  0.1473 -0.3075
 2719SOL    HW210648   4.746   0.979   3.972  0.1609  0.7380 -0.7655
 2719SOL    HW310649   4.850   0.973   4.082 -0.3656  0.6635 -0.2654
 2719SOL    MW410650   4.829   0.973   3.997  0.5852 -0.7167  0.1534
 2720SOL     OW10651   2.467   0.574   2.078  0.4204 -0.4386  0.3150
 2720SOL    HW210652   2.478   0.642   2.011  0.1451 -1.1289 -0.4443
 2720SOL    HW310653   2.391   0.603   2.129  0.2036 -0.2609 -0.1016
 2720SOL    MW410654   2.459   0.587   2.076 -0.3187  0.0103  0.4739
 2721SOL     OW10655   2.575   3.828   1.094  0.2752  0.3513  0.2962
 2721SOL    HW210656   2.643   3.767   1.120  1.2452  1.1233 -0.3567
 2721SOL    HW310657   2.575   3.895   1.163  1.6415  1.4583 -0.7138
 2721SOL    MW410658   2.584   3.829   1.107  0.0401 -0.1966 -0.0817
 2722SOL     OW10659   3.458   4.633   0.657 -0.7939 -1.2095 -0.0674
 2722SOL    HW210660   3.508   4.578   0.597 -0.0375  1.5256 -2.1600
 2722SOL    HW310661   3.385   4.666   0.604 -1.0093  0.0519  0.9682
 2722SOL    MW410662   3.455   4.630   0.642 -0.5692 -0.0722 -0.3515
 2723SOL     OW10663   1.365   2.222   2.186 -0.3700 -0.4663 -0.3383
 2723SOL    HW210664   1.323   2.211   2.101 -0.1280 -1.3767 -0.3482
 2723SOL    HW310665   1.459   2.213   2.168 -0.3206 -0.7121  0.0239
 2723SOL    MW410666   1.372   2.219   2.172  0.7333 -0.1363 -0.0898
 2724SOL     OW10667   2.698   5.720   5.921 -0.1735 -0.4415 -0.5378
 2724SOL    HW210668   2.768   5.755   5.865  0.9582 -1.7031  0.0137
 2724SOL    HW310669   2.725   5.629   5.937 -0.5447 -0.1860  1.8946
 2724SOL    MW410670   2.711   5.713   5.916  0.8945 -0.2540 -0.2043
 2725SOL     OW10671   1.398   2.152   0.250 -0.0212  0.1345  0.3255
 2725SOL    HW210672   1.436   2.067   0.270  0.0321  0.4969  1.8884
 2725SOL    HW310673   1.345   2.137   0.172  1.8308 -0.7906 -0.8181
 2725SOL    MW410674   1.396   2.139   0.242  0.5343  0.0068 -0.0409
 2726SOL     OW10675   0.988   1.275   0.820 -0.2086  0.0517 -0.1002
 2726SOL    HW210676   1.075   1.273   0.861 -1.1867  2.8713  2.5535
 2726SOL    HW310677   0.927   1.268   0.893 -2.2181 -0.1907 -1.7193
 2726SOL    MW410678   0.992   1.274   0.835 -0.4436  0.1590  0.5960
 2727SOL     OW10679   3.811   1.983   3.691 -0.2167 -0.5656  0.5251
 2727SOL    HW210680   3.890   1.936   3.667 -0.6300 -1.5355  1.0093
 2727SOL    HW310681   3.842   2.058   3.742  0.4679 -0.1329 -0.5080
 2727SOL    MW410682   3.825   1.987   3.695 -0.0593 -0.2517  0.1373
 2728SOL     OW10683   5.154   0.103   0.669  0.0907  0.2649  0.0002
 2728SOL    HW210684   5.086   0.041   0.644  0.5661 -0.6535  0.8836
 2728SOL    HW310685   5.181   0.074   0.756  0.2927  1.7549  0.4707
 2728SOL    MW410686   5.148   0.091   0.678  0.0240  0.0701 -0.6972
 2729SOL     OW10687   4.824   2.304   5.380  0.7096  0.0532 -0.5140
 2729SOL    HW210688   4.768   2.348   5.315  1.2397  0.4372 -0.7145
 2729SOL    HW310689   4.773   2.307   5.461  1.2683  2.2596 -0.1802
 2729SOL    MW410690   4.810   2.311   5.382  0.0970  0.1486 -0.1749
 2730SOL     OW10691   0.467   4.783   0.890  0.2225  0.0049 -0.3912
 2730SOL    HW210692   0.540   4.816   0.943 -0.5085  1.6462 -0.3499
 2730SOL    HW310693   0.389   4.801   0.943 -0.4553  0.9836 -1.6602
 2730SOL    MW410694   0.467   4.790   0.904  0.0265  0.0378  0.5073
 2731SOL     OW10695   0.465   6.034   3.115  0.6465 -0.0555 -0.9987
 2731SOL    HW210696   0.506   5.954   3.081  1.0413 -0.2325 -0.1169
 2731SOL    HW310697   0.376   6.007   3.139  0.4055  0.0418 -1.7485
 2731SOL    MW410698   0.459   6.020   3.114 -0.2476 -0.1349 -0.6730
 2732SOL     OW10699   3.845   1.540   1.508  0.1597 -0.5738  0.1402
 2732SOL    HW210700   3.829   1.536   1.414  1.4597 -0.6412 -0.0863
 2732SOL    HW310701   3.791   1.470   1.545 -0.1575 -0.7096 -0.5753
 2732SOL    MW410702   3.836   1.531   1.501  0.5211 -0.3624 -0.1949
 2733SOL     OW10703   5.186   4.479   4.428 -0.2827  0.2985 -0.1193
 2733SOL    HW210704   5.150   4.460   4.514  0.6107 -0.5541  0.0838
 2733SOL    HW310705   5.276   4.509   4.445  0.4099 -1.2559 -0.8036
 2733SOL    MW410706   5.193   4.481   4.441 -0.5959 -0.0233 -0.2481
 2734SOL     OW10707   4.369   4.740   0.504  0.0668  0.4856  0.2216
 2734SOL    HW210708   4.445   4.683   0.495  0.7937  1.6050 -1.0860
 2734SOL    HW310709   4.389   4.795   0.580 -0.0005 -0.0163  0.6116
 2734SOL    MW410710   4.381   4.740   0.513  0.1173  0.4249  0.2110
 2735SOL     OW10711   1.805   0.160   2.458 -0.3074 -0.1241 -0.2192
 2735SOL    HW210712   1.890   0.151   2.416 -1.3777  1.5467 -3.0225
 2735SOL    HW310713   1.822   0.213   2.536  1.2736 -0.1668 -0.5168
 2735SOL    MW410714   1.818   0.166   2.463  0.6741 -0.0794 -0.7351
 2736SOL     OW10715   3.493   5.769   2.530 -0.0002  0.1396 -0.4158
 2736SOL    HW210716   3.432   5.700   2.557 -0.3880  0.3614 -0.7201
 2736SOL    HW310717   3.547   5.729   2.462 -0.5938  0.3030 -0.9877
 2736SOL    MW410718   3.492   5.755   2.525  0.1075 -0.3628 -0.1724
 2737SOL     OW10719   4.292   4.785   2.374  0.0433 -0.2321 -0.1210
 2737SOL    HW210720   4.205   4.747   2.383  0.2529 -0.5710  0.5691
 2737SOL    HW310721   4.350   4.710   2.363  0.4419 -0.1344  1.1178
 2737SOL    MW410722   4.288   4.770   2.374  0.2070  0.3124 -0.1470
 2738SOL     OW10723   3.199   6.208   0.079  0.3855 -0.0317 -0.7241
 2738SOL    HW210724   3.294   6.218   0.077  0.5878 -1.0638  1.1110
 2738SOL    HW310725   3.168   6.285   0.126  0.1696  0.8571 -2.2567
 2738SOL    MW410726   3.207   6.219   0.085  0.1606  0.2124 -0.5545
 2739SOL     OW10727   5.507   3.478   0.848  0.1715  0.4000 -0.4997
 2739SOL    HW210728   5.460   3.471   0.765 -1.9919  0.0328  0.6860
 2739SOL    HW310729   5.562   3.400   0.851  0.0634  0.2736 -1.4352
 2739SOL    MW410730   5.508   3.467   0.837 -0.7629  0.5029 -0.5601
 2740SOL     OW10731   1.812   2.089   3.132  0.2418  0.3718 -0.4525
 2740SOL    HW210732   1.844   2.034   3.061  0.1112 -0.7574  0.3359
 2740SOL    HW310733   1.720   2.064   3.143  0.5468 -0.3039  0.8370
 2740SOL    MW410734   1.804   2.078   3.124  0.0868  0.5848  0.4594
 2741SOL     OW10735   6.112   3.474   3.316  0.2598  0.1950  0.3382
 2741SOL    HW210736   6.022   3.489   3.345  0.3563 -0.7119  1.1880
 2741SOL    HW310737   6.163   3.543   3.357  0.2032 -0.3469  1.3565
 2741SOL    MW410738   6.106   3.485   3.325 -0.2650  0.5748  0.1196
 2742SOL     OW10739   2.799   3.500   6.150 -0.0009 -0.2178  0.3783
 2742SOL    HW210740   2.840   3.413   6.154 -1.6356 -1.1414 -1.2770
 2742SOL    HW310741   2.854   3.555   6.206  1.5860 -2.1058  0.7977
 2742SOL    MW410742   2.812   3.496   6.158 -0.0497  0.1278 -0.4010
 2743SOL     OW10743   0.093   3.893   0.519  0.6713  0.0458 -0.4270
 2743SOL    HW210744   0.036   3.961   0.484  1.6505  1.6612  0.9654
 2743SOL    HW310745   0.053   3.811   0.491 -2.4167  1.0696  0.5972
 2743SOL    MW410746   0.080   3.891   0.510  0.1072  0.2617  0.6851
 2744SOL     OW10747   5.112   1.276   5.454 -0.1143 -0.1144 -0.2204
 2744SOL    HW210748   5.130   1.314   5.368  0.0383 -3.2630 -1.7458
 2744SOL    HW310749   5.016   1.272   5.459 -0.1187 -0.5186 -0.5627
 2744SOL    MW410750   5.101   1.280   5.443 -0.1986 -0.3870 -0.1269
 2745SOL     OW10751   0.853   2.814   4.424 -0.6981 -0.0974  0.8084
 2745SOL    HW210752   0.942   2.843   4.447 -0.2841  0.3012 -1.0945
 2745SOL    HW310753   0.817   2.781   4.506  0.7465  0.9169  1.9161
 2745SOL    MW410754   0.860   2.814   4.438  0.1621  0.4431 -1.0135
 2746SOL     OW10755   0.074   2.121   1.028 -0.6681  0.7604 -0.0356
 2746SOL    HW210756   0.108   2.032   1.035  0.6439  1.2248 -0.0914
 2746SOL    HW310757   0.091   2.160   1.113 -1.5231  0.8701  0.0902
 2746SOL    MW410758   0.081   2.115   1.040  0.0191 -0.4982  0.4004
 2747SOL     OW10759   1.527   1.792   6.343  0.9913  0.4904  0.0706
 2747SOL    HW210760   1.597   1.780   6.278 -0.9294 -1.6610 -1.7895
 2747SOL    HW310761   1.466   1.852   6.300 -0.0637 -0.5719  0.0311
 2747SOL    MW410762   1.528   1.798   6.329  0.1329 -0.6890  0.2941
 2748SOL     OW10763   0.103   3.213   5.953  0.2646 -0.7208  0.8893
 2748SOL    HW210764   0.071   3.226   6.042  3.1299  0.8643  1.8314
 2748SOL    HW310765   0.101   3.300   5.913  0.7046 -1.0740  0.0540
 2748SOL    MW410766   0.099   3.226   5.959  0.6122  0.1890  0.3707
 2749SOL     OW10767   3.585   3.951   5.989  0.7177  0.1209  0.2121
 2749SOL    HW210768   3.498   3.935   6.025 -0.3571  2.1930 -1.2452
 2749SOL    HW310769   3.637   3.981   6.063 -0.1929  0.1139  0.8656
 2749SOL    MW410770   3.580   3.953   6.003  0.6032  0.5814 -0.6869
 2750SOL     OW10771   2.952   1.130   1.496  0.1247 -0.2857  0.1080
 2750SOL    HW210772   2.925   1.098   1.582  0.5304  0.6887  0.6204
 2750SOL    HW310773   2.962   1.225   1.508 -3.1965  0.5079 -1.8801
 2750SOL    MW410774   2.950   1.138   1.509  0.0710 -0.0794  0.0214
 2751SOL     OW10775   0.786   6.117   6.005 -0.3435 -0.5009 -0.0864
 2751SOL    HW210776   0.840   6.070   6.068  1.0644  1.6051  0.3938
 2751SOL    HW310777   0.808   6.079   5.920  1.7472  0.0910  0.1366
 2751SOL    MW410778   0.796   6.106   6.002  0.6168  0.0638 -0.1826
 2752SOL     OW10779   6.411   3.182   0.453  0.4606 -0.2959  0.3439
 2752SOL    HW210780   6.347   3.124   0.495  0.6979 -0.9100 -0.1309
 2752SOL    HW310781   6.479   3.194   0.518  1.2406 -1.9131 -0.1108
 2752SOL    MW410782   6.411   3.176   0.467 -0.0898  0.0340 -0.2530
 2753SOL     OW10783   1.273   6.260   3.609 -0.1598 -0.6313 -0.1373
 2753SOL    HW210784   1.353   6.256   3.557 -0.1928  0.3236 -0.2765
 2753SOL    HW310785   1.202   6.247   3.546 -0.1545 -0.6648 -0.1367
 2753SOL    MW410786   1.274   6.258   3.594 -0.4978  0.6236  0.5461
 2754SOL     OW10787   4.460   3.388   0.103  0.0200 -0.1800  0.3414
 2754SOL    HW210788   4.521   3.460   0.119  0.7195 -0.8498  0.7519
 2754SOL    HW310789   4.412   3.414   0.024 -1.3805  1.7944  1.7312
 2754SOL    MW410790   4.462   3.401   0.095  0.8566 -0.4380  0.7687
 2755SOL     OW10791   0.186   1.495   5.118  0.3041  0.0021 -0.2196
 2755SOL    HW210792   0.101   1.469   5.083 -0.4828  0.7246  1.0594
 2755SOL    HW310793   0.226   1.414   5.149 -1.2297 -0.0269  1.8689
 2755SOL    MW410794   0.180   1.481   5.117 -0.0700  0.3565 -0.0722
 2756SOL     OW10795   5.807   1.293   0.336  0.2504  0.0452  0.2705
 2756SOL    HW210796   5.762   1.312   0.418  0.8347 -0.9013  0.8348
 2756SOL    HW310797   5.876   1.232   0.361  1.1547  0.6223 -0.7518
 2756SOL    MW410798   5.810   1.287   0.350  0.3868  0.0365 -0.1583
 2757SOL     OW10799   5.447   1.592   5.090 -0.2986 -0.0885 -0.4145
 2757SOL    HW210800   5.529   1.547   5.068 -0.8425 -2.0986  1.3981
 2757SOL    HW310801   5.421   1.556   5.174 -2.4908  1.3479 -0.3922
 2757SOL    MW410802   5.455   1.582   5.098  0.3430 -0.2947  0.0680
 2758SOL     OW10803   5.224   4.277   6.279 -0.1279  0.6341  0.5936
 2758SOL    HW210804   5.234   4.256   6.186 -0.5266 -0.7105  0.8335
 2758SOL    HW310805   5.314   4.286   6.311  0.0051  1.6481 -0.0210
 2758SOL    MW410806   5.238   4.276   6.271  0.1063 -0.1629  0.9051
 2759SOL     OW10807   2.962   6.074   4.203 -0.7572  0.2758 -0.6719
 2759SOL    HW210808   2.950   6.168   4.191  2.1442  0.7404 -0.6444
 2759SOL    HW310809   2.928   6.035   4.122 -0.2891  1.5382 -1.5120
 2759SOL    MW410810   2.956   6.081   4.191  0.0724  0.8904  0.1368
 2760SOL     OW10811   2.184   1.063   5.541 -0.3240  0.2162  0.9348
 2760SOL    HW210812   2.186   1.158   5.530 -1.6636  0.2724  1.0450
 2760SOL    HW310813   2.144   1.030   5.461 -0.4803 -0.2089  1.1881
 2760SOL    MW410814   2.179   1.071   5.529 -0.3442 -0.2138  0.3226
 2761SOL     OW10815   0.558   3.736   6.031  0.0928  0.3202 -0.4726
 2761SOL    HW210816   0.598   3.688   6.104 -1.7868  0.1118  0.4842
 2761SOL    HW310817   0.624   3.734   5.962  1.9364  0.5196  1.2098
 2761SOL    MW410818   0.572   3.729   6.032 -0.6483  0.3978  0.8447
 2762SOL     OW10819   5.232   2.511   4.519 -0.0571 -0.1850 -0.4740
 2762SOL    HW210820   5.254   2.550   4.435  0.8861  0.7657  0.1867
 2762SOL    HW310821   5.288   2.434   4.526  0.6108  0.3066 -0.2912
 2762SOL    MW410822   5.242   2.506   4.509 -0.4258 -0.0030  0.1872
 2763SOL     OW10823   3.979   3.559   6.409 -0.6966  0.3491  0.5531
 2763SOL    HW210824   4.031   3.635   6.384 -1.7417  0.7509 -0.5212
 2763SOL    HW310825   3.893   3.595   6.431 -1.8281 -0.6125 -1.8441
 2763SOL    MW410826   3.975   3.574   6.409  0.3492  0.1227 -0.5020
 2764SOL     OW10827   0.469   1.168   1.000 -0.3193  0.1276 -0.0130
 2764SOL    HW210828   0.510   1.153   1.085 -0.6714  0.3512  0.2012
 2764SOL    HW310829   0.439   1.259   1.004  0.5622  0.4635 -0.7611
 2764SOL    MW410830   0.471   1.178   1.012 -0.0382  0.2295  0.4884
 2765SOL     OW10831   2.414   0.399   1.345  0.1190 -0.5638 -0.5176
 2765SOL    HW210832   2.376   0.456   1.412 -0.9882 -0.0876 -1.5186
 2765SOL    HW310833   2.475   0.343   1.393  0.2326  0.5565  0.6969
 2765SOL    MW410834   2.417   0.399   1.360  0.4207  0.6465  0.6637
 2766SOL     OW10835   1.766   1.489   2.186  0.6540  0.2025  0.3477
 2766SOL    HW210836   1.858   1.473   2.209  0.5477 -2.8803 -0.9532
 2766SOL    HW310837   1.724   1.511   2.269  2.4129  1.0472  1.0666
 2766SOL    MW410838   1.773   1.490   2.200  0.3133  0.5600 -0.5241
 2767SOL     OW10839   0.731   6.209   5.718  0.4048  0.1341  0.3913
 2767SOL    HW210840   0.807   6.172   5.674 -0.4516 -0.8070 -0.3365
 2767SOL    HW310841   0.762   6.294   5.752  1.6253 -0.0083 -0.3108
 2767SOL    MW410842   0.745   6.216   5.717 -0.5564  1.3143  0.1949
 2768SOL     OW10843   3.785   6.276   0.683 -0.2474  0.3386 -0.0331
 2768SOL    HW210844   3.838   6.198   0.699  0.2935  0.3840 -1.4505
 2768SOL    HW310845   3.848   6.343   0.659 -0.7698  1.0567  0.5515
 2768SOL    MW410846   3.800   6.274   0.682  0.1935 -0.4533 -0.1205
 2769SOL     OW10847   0.918   0.420   2.265  0.4520  0.3338  0.2329
 2769SOL    HW210848   0.961   0.367   2.198  0.4602 -0.7920  1.1021
 2769SOL    HW310849   0.835   0.376   2.281  1.0989 -0.2806  2.0320
 2769SOL    MW410850   0.913   0.408   2.258 -0.4440  0.3487 -0.7966
 2770SOL     OW10851   5.802   4.050   0.072  0.0110 -0.7434  0.0397
 2770SOL    HW210852   5.770   3.992   0.003  0.2513  0.4024 -1.0592
 2770SOL    HW310853   5.735   4.118   0.080  0.9478  0.2770 -0.5220
 2770SOL    MW410854   5.789   4.051   0.064  0.1726  0.3260  0.5383
 2771SOL     OW10855   1.914   5.546   6.028 -0.3770  0.1366 -0.4059
 2771SOL    HW210856   1.880   5.554   5.939  2.0195 -0.5583 -1.4776
 2771SOL    HW310857   2.009   5.546   6.017  0.0737  1.8878  2.3391
 2771SOL    MW410858   1.922   5.547   6.015  0.4338 -0.6409 -0.0143
 2772SOL     OW10859   1.302   5.320   4.246  0.5857 -0.2071 -0.2327
 2772SOL    HW210860   1.232   5.313   4.181 -0.3476 -0.6879  0.7794
 2772SOL    HW310861   1.302   5.235   4.290  0.3868  0.5056  1.1939
 2772SOL    MW410862   1.293   5.307   4.243  0.0353 -0.5121  0.0918
 2773SOL     OW10863   5.857   5.346   3.995 -0.0875 -0.0498 -0.3439
 2773SOL    HW210864   5.875   5.348   4.089 -0.2735 -1.8780 -0.2285
 2773SOL    HW310865   5.893   5.428   3.961 -2.4534  1.9916  1.7068
 2773SOL    MW410866   5.864   5.357   4.003  0.4402  0.1108  0.3991
 2774SOL     OW10867   1.299   2.763   0.126  0.0822 -0.2112 -0.4090
 2774SOL    HW210868   1.345   2.834   0.169  0.2972 -0.2946 -0.5009
 2774SOL    HW310869   1.215   2.757   0.173  0.7010 -0.9506  0.6661
 2774SOL    MW410870   1.294   2.771   0.138  0.1270  0.0418 -0.3154
 2775SOL     OW10871   0.243   0.758   1.435 -0.5588 -0.1920 -0.7188
 2775SOL    HW210872   0.287   0.673   1.439 -1.5137 -0.6620  2.3345
 2775SOL    HW310873   0.313   0.821   1.419  0.9958 -1.1288  1.7979
 2775SOL    MW410874   0.258   0.755   1.433 -0.3785  0.0441  0.5794
 2776SOL     OW10875   4.618   0.091   4.936 -0.2407 -0.1037  0.6111
 2776SOL    HW210876   4.573   0.012   4.907 -2.3504  0.3144  2.4957
 2776SOL    HW310877   4.595   0.157   4.870  0.1436 -0.6180 -0.0564
 2776SOL    MW410878   4.609   0.090   4.923  0.3450  0.1406  0.4440
 2777SOL     OW10879   5.577   5.485   3.644  0.2926  0.0035 -0.9688
 2777SOL    HW210880   5.660   5.533   3.644  0.4955 -0.2826  0.5856
 2777SOL    HW310881   5.552   5.480   3.552  2.2129 -0.2586 -1.5251
 2777SOL    MW410882   5.585   5.491   3.632  0.3640  0.9838 -0.2101
 2778SOL     OW10883   0.844   6.145   2.856  0.7291 -0.6820 -0.2409
 2778SOL    HW210884   0.852   6.055   2.887 -1.5641 -0.6150  0.7402
 2778SOL    HW310885   0.809   6.137   2.768 -0.0868 -0.7557  0.0843
 2778SOL    MW410886   0.840   6.132   2.849 -0.1679  0.7485  0.5074
 2779SOL     OW10887   5.617   2.569   5.459  0.3571  0.0069 -0.1368
 2779SOL    HW210888   5.654   2.611   5.537  1.1142 -2.4338  0.8882
 2779SOL    HW310889   5.557   2.503   5.493 -3.4537  2.2717 -1.7323
 2779SOL    MW410890   5.614   2.566   5.474  0.1799  0.0656  0.1353
 2780SOL     OW10891   0.594   2.539   2.203  0.8694  0.1611  0.2346
 2780SOL    HW210892   0.686   2.553   2.179  0.6947  1.1858  0.1117
 2780SOL    HW310893   0.598   2.488   2.284  1.5592  0.7213  0.5683
 2780SOL    MW410894   0.607   2.534   2.210 -0.1385  0.4453 -0.3841
 2781SOL     OW10895   0.460   6.416   6.250  0.2809 -0.2808  0.4182
 2781SOL    HW210896   0.378   6.430   6.202 -1.0503 -2.3824  1.8999
 2781SOL    HW310897   0.485   6.326   6.227  1.2364 -0.2589  1.3152
 2781SOL    MW410898   0.453   6.406   6.240 -0.6268 -0.0349 -0.4728
 2782SOL     OW10899   0.720   0.021   1.588  0.1083  0.0728 -0.3135
 2782SOL    HW210900   0.728   0.045   1.681 -0.2705 -0.9868  0.0122
 2782SOL    HW310901   0.810   0.017   1.556  0.2708  0.0059  0.1344
 2782SOL    MW410902   0.733   0.023   1.596 -0.2490  0.1386 -0.1279
 2783SOL     OW10903   2.543   6.346   3.288  0.5480 -0.1045  1.1513
 2783SOL    HW210904   2.451   6.350   3.312 -0.1299  0.6172 -1.2581
 2783SOL    HW310905   2.571   6.259   3.315 -2.0137 -2.0006 -1.6194
 2783SOL    MW410906   2.535   6.335   3.295  0.0329 -0.5883  0.3965
 2784SOL     OW10907   5.824   1.085   0.593 -0.0148  0.1395 -0.0282
 2784SOL    HW210908   5.867   1.169   0.581 -1.4632  0.8038 -0.8621
 2784SOL    HW310909   5.893   1.027   0.627  1.5751  1.0776 -1.4758
 2784SOL    MW410910   5.839   1.088   0.596 -0.6494 -0.1719 -0.1971
 2785SOL     OW10911   1.958   3.842   5.704 -0.0281  0.4260  0.5886
 2785SOL    HW210912   1.879   3.787   5.699  0.1849  0.1683 -0.2066
 2785SOL    HW310913   1.952   3.885   5.789 -1.3503  0.8836  0.2942
 2785SOL    MW410914   1.947   3.840   5.714 -0.2341 -0.2569  0.1890
 2786SOL     OW10915   2.516   4.883   2.438  0.3796  0.5237  0.4518
 2786SOL    HW210916   2.520   4.979   2.435  2.7226  0.4954  0.9743
 2786SOL    HW310917   2.598   4.854   2.399 -0.2268 -1.2802  0.4319
 2786SOL    MW410918   2.527   4.892   2.433 -0.1730 -0.0959  0.5108
 2787SOL     OW10919   5.406   2.298   5.236 -0.1125  0.0373 -0.2916
 2787SOL    HW210920   5.379   2.388   5.216 -1.4291 -0.6303 -1.6616
 2787SOL    HW310921   5.336   2.243   5.202 -0.4480 -1.4514  2.4843
 2787SOL    MW410922   5.393   2.303   5.229 -0.3885 -0.1446 -0.0316
 2788SOL     OW10923   4.086   2.709   1.540 -0.6338 -0.1509 -0.5931
 2788SOL    HW210924   4.077   2.774   1.610  0.5376 -1.7401  1.0958
 2788SOL    HW310925   4.090   2.762   1.460  0.6340  1.9013  0.7283
 2788SOL    MW410926   4.085   2.725   1.538 -0.2758 -1.1325 -0.1901
 2789SOL     OW10927   0.120   5.722   2.208  0.1855 -0.1335 -0.1759
 2789SOL    HW210928   0.102   5.721   2.302  1.1092  0.8503  0.0255
 2789SOL    HW310929   0.065   5.652   2.173 -1.1515  0.3368  0.9063
 2789SOL    MW410930   0.111   5.713   2.216  0.1444 -0.3021  0.2113
 2790SOL     OW10931   3.178   4.697   4.436 -0.4617  0.4405 -0.0937
 2790SOL    HW210932   3.250   4.759   4.449  0.5581 -0.9294  0.9695
 2790SOL    HW310933   3.134   4.694   4.521  1.6278 -2.8661  1.0160
 2790SOL    MW410934   3.182   4.705   4.449 -0.6611 -0.3427 -0.1710
 2791SOL     OW10935   2.274   2.911   0.233  0.2207  0.3524  0.2476
 2791SOL    HW210936   2.278   3.002   0.261  0.2549  0.3608  0.2146
 2791SOL    HW310937   2.181   2.895   0.217 -0.3926 -0.7197  3.9637
 2791SOL    MW410938   2.262   2.920   0.235  0.6694  0.1180 -0.2893
 2792SOL     OW10939   2.267   0.039   5.551  0.0726 -0.0681 -0.2087
 2792SOL    HW210940   2.268  -0.036   5.491 -0.5193 -1.5516  1.5520
 2792SOL    HW310941   2.238   0.113   5.496  0.5338 -1.1219 -1.9646
 2792SOL    MW410942   2.263   0.039   5.536  0.5378  0.0200  0.5741
 2793SOL     OW10943   1.904   4.742   2.719 -0.0817  0.0506 -0.4123
 2793SOL    HW210944   1.909   4.698   2.634  1.7165 -1.1751  0.2750
 2793SOL    HW310945   1.848   4.686   2.772 -1.4504  0.9677 -0.8148
 2793SOL    MW410946   1.898   4.729   2.715 -0.1273  0.5989  0.0797
 2794SOL     OW10947   3.343   5.142   5.595  0.6568  0.3596 -0.1615
 2794SOL    HW210948   3.299   5.099   5.668  0.2601  1.5980  0.3585
 2794SOL    HW310949   3.315   5.092   5.518  1.1307 -1.0039  0.5075
 2794SOL    MW410950   3.334   5.130   5.594 -0.1008  0.0054  0.5900
 2795SOL     OW10951   3.217   1.840   4.675  0.2796 -0.4076 -0.1957
 2795SOL    HW210952   3.173   1.782   4.613 -0.4007 -0.2696  0.1538
 2795SOL    HW310953   3.306   1.848   4.641 -0.0163 -0.5309 -1.0190
 2795SOL    MW410954   3.223   1.833   4.662 -0.5803  0.1290 -0.2280
 2796SOL     OW10955   1.721   3.680   5.690  0.5634 -0.0922  0.3826
 2796SOL    HW210956   1.626   3.691   5.682  0.6590  0.8879  0.4906
 2796SOL    HW310957   1.732   3.622   5.765  0.0271 -1.0123 -0.2195
 2796SOL    MW410958   1.710   3.674   5.699  0.0738  0.3913 -0.3174
 2797SOL     OW10959   1.451   2.181   0.524  0.0484  0.5671  0.3589
 2797SOL    HW210960   1.366   2.201   0.564  0.2558  2.3437  0.0251
 2797SOL    HW310961   1.434   2.186   0.430  0.1571 -0.8956  0.2350
 2797SOL    MW410962   1.438   2.184   0.517 -0.5111 -0.5425  0.4491
 2798SOL     OW10963   3.687   0.039   1.313 -0.3951  0.2118 -0.6781
 2798SOL    HW210964   3.641   0.049   1.397 -0.5176 -1.0281 -0.5817
 2798SOL    HW310965   3.720   0.127   1.294 -0.8497  0.6387  0.3889
 2798SOL    MW410966   3.686   0.052   1.322  0.7233  0.2699  0.3856
 2799SOL     OW10967   5.876   3.574   0.850  0.3548  0.6437  0.0510
 2799SOL    HW210968   5.886   3.490   0.894 -2.0325  1.0960  1.6917
 2799SOL    HW310969   5.962   3.615   0.855  0.7814 -0.3775  2.1448
 2799SOL    MW410970   5.888   3.568   0.857 -0.2797  0.2621 -0.5917
 2800SOL     OW10971   1.404   4.589   0.254  0.1928 -0.2167 -0.3225
 2800SOL    HW210972   1.397   4.500   0.219 -1.6381  0.0526 -0.7632
 2800SOL    HW310973   1.375   4.645   0.181 -1.5887  0.5080  0.8686
 2800SOL    MW410974   1.399   4.585   0.240 -0.1133 -0.4053 -0.1969
 2801SOL     OW10975   1.778   2.917   3.047  0.3095 -0.4403 -0.4445
 2801SOL    HW210976   1.762   3.003   3.087  0.8418 -1.3273  1.8093
 2801SOL    HW310977   1.872   2.916   3.031  0.2763 -0.5331 -0.6312
 2801SOL    MW410978   1.788   2.929   3.050  0.3809  0.3692  0.0045
 2802SOL     OW10979   0.438   0.330   2.709 -0.4259 -0.5438 -1.0229
 2802SOL    HW210980   0.409   0.240   2.697 -0.8156 -0.3080 -1.9602
 2802SOL    HW310981   0.533   0.325   2.718 -0.5390 -1.1316 -0.0953
 2802SOL    MW410982   0.446   0.318   2.709 -0.3304  0.0147 -0.4254
 2803SOL     OW10983   4.154   0.769   0.499 -0.0415  0.2678  0.2360
 2803SOL    HW210984   4.180   0.683   0.465 -0.3724 -0.1838  1.0784
 2803SOL    HW310985   4.090   0.802   0.436 -0.7845 -0.6337  0.4898
 2803SOL    MW410986   4.149   0.762   0.486 -0.2987 -0.2162 -0.6026
 2804SOL     OW10987   0.319   1.872   4.493 -0.1528  0.3849  0.7800
 2804SOL    HW210988   0.228   1.847   4.477 -0.4103  1.6731  0.1707
 2804SOL    HW310989   0.314   1.955   4.541  0.6345  2.5265 -2.5220
 2804SOL    MW410990   0.306   1.879   4.497  0.0479 -0.8138  0.3656
 2805SOL     OW10991   5.165   3.735   0.550 -0.6815  0.6155 -0.3470
 2805SOL    HW210992   5.204   3.791   0.617 -1.3363  1.5984 -0.7632
 2805SOL    HW310993   5.227   3.740   0.477  0.0606 -0.5008  0.1710
 2805SOL    MW410994   5.179   3.743   0.549  0.3867 -0.2602 -0.8444
 2806SOL     OW10995   6.149   1.371   0.238 -0.6687 -0.7532 -0.2227
 2806SOL    HW210996   6.236   1.331   0.241 -0.5040 -0.3725  0.2806
 2806SOL    HW310997   6.164   1.461   0.267 -1.0080 -0.2917 -1.4254
 2806SOL    MW410998   6.162   1.378   0.242  0.2484  0.4761  0.2033
 2807SOL     OW10999   1.553   1.938   4.630  0.4255 -0.2880  0.0821
 2807SOL    HW211000   1.524   2.028   4.622  2.1979  0.2916 -0.2266
 2807SOL    HW311001   1.575   1.928   4.723  1.4753  0.0352 -0.1141
 2807SOL    MW411002   1.552   1.948   4.641  0.2256 -0.2001  0.4995
 2808SOL     OW11003   2.617   1.706   6.345 -0.0251  0.1032  0.1952
 2808SOL    HW211004   2.620   1.648   6.269 -3.9574 -0.5260  0.3044
 2808SOL    HW311005   2.677   1.777   6.323  0.4679 -1.0548 -2.6022
 2808SOL    MW411006   2.625   1.708   6.332 -0.1802 -0.3112  0.0335
 2809SOL     OW11007   3.303   2.641   0.298 -0.6964  0.2019 -0.4948
 2809SOL    HW211008   3.364   2.621   0.369 -0.8603  1.0848 -0.1040
 2809SOL    HW311009   3.225   2.588   0.317  0.4064 -2.0541 -1.7515
 2809SOL    MW411010   3.301   2.631   0.310 -0.1480 -0.5599  0.3654
 2810SOL     OW11011   2.554   1.877   3.245 -0.1573 -0.3959  0.1419
 2810SOL    HW211012   2.546   1.941   3.316  0.9536  0.4128 -0.4350
 2810SOL    HW311013   2.538   1.927   3.165 -0.2856 -1.0633 -0.2605
 2810SOL    MW411014   2.551   1.892   3.244 -0.1183 -0.0933  0.0390
 2811SOL     OW11015   4.545   2.097   5.166 -0.1251 -0.3269  0.5617
 2811SOL    HW211016   4.515   2.063   5.082 -1.0183  1.0793  0.2768
 2811SOL    HW311017   4.626   2.145   5.145 -0.4543  0.1928  0.4476
 2811SOL    MW411018   4.552   2.099   5.152  0.0431  0.3316  0.0033
 2812SOL     OW11019   0.279   4.229   6.217  0.4124 -0.3810 -0.1452
 2812SOL    HW211020   0.289   4.134   6.210  0.6866 -0.2903 -1.0247
 2812SOL    HW311021   0.360   4.264   6.181  0.1724  0.2033 -0.1227
 2812SOL    MW411022   0.291   4.221   6.212 -0.2023  0.1363 -0.3732
 2813SOL     OW11023   5.072   3.618   2.875 -0.0284 -0.3037 -0.1366
 2813SOL    HW211024   5.122   3.687   2.830 -0.9287 -0.1149 -0.8876
 2813SOL    HW311025   4.983   3.627   2.840 -0.2355 -1.6367  0.0067
 2813SOL    MW411026   5.067   3.628   2.864  0.1880 -0.2082 -0.2032
 2814SOL     OW11027   1.243   1.507   2.718 -0.2622 -0.1769 -0.0650
 2814SOL    HW211028   1.331   1.473   2.733 -0.4581 -1.1392 -0.9800
 2814SOL    HW311029   1.258   1.596   2.685  0.3150  0.0888  0.8715
 2814SOL    MW411030   1.257   1.514   2.716 -0.1901  0.0950 -0.2803
 2815SOL     OW11031   5.623   6.342   5.124  0.7119 -0.2849  0.7136
 2815SOL    HW211032   5.690   6.403   5.090  0.1627  0.3096  0.6814
 2815SOL    HW311033   5.638   6.262   5.074  2.0257 -0.4854  1.3848
 2815SOL    MW411034   5.634   6.340   5.113  0.4856  0.0373  0.1143
 2816SOL     OW11035   1.767   5.303   4.408  0.6401 -0.5969  0.1510
 2816SOL    HW211036   1.687   5.334   4.451  0.3132  2.6370 -2.3745
 2816SOL    HW311037   1.832   5.299   4.478 -0.5585  1.4642  1.4979
 2816SOL    MW411038   1.765   5.306   4.423 -0.0484  0.3499  0.4704
 2817SOL     OW11039   1.432   1.376   3.147 -0.1821 -0.1378 -0.2276
 2817SOL    HW211040   1.493   1.316   3.104  0.3232 -0.1825  0.5402
 2817SOL    HW311041   1.426   1.343   3.237 -0.3781  0.6017  0.0318
 2817SOL    MW411042   1.439   1.364   3.153 -0.3502  0.2087  0.1450
 2818SOL     OW11043   5.229   1.518   4.910  0.6387  0.1618  0.0747
 2818SOL    HW211044   5.153   1.573   4.930  1.8237  2.1211 -0.5012
 2818SOL    HW311045   5.265   1.496   4.996 -1.7765 -2.7760  0.5080
 2818SOL    MW411046   5.224   1.522   4.924  0.4934 -0.1449 -0.5474
 2819SOL     OW11047   4.980   1.201   2.597  0.0027 -0.0032 -0.6208
 2819SOL    HW211048   5.052   1.138   2.595  0.6010  0.6804 -1.1344
 2819SOL    HW311049   5.022   1.286   2.588 -0.6932  0.5923  1.3229
 2819SOL    MW411050   4.995   1.204   2.595 -0.5140 -0.1130 -0.5853
 2820SOL     OW11051   4.851   6.301   6.043  0.0823  0.3199  0.2274
 2820SOL    HW211052   4.818   6.379   5.999 -0.4210 -0.2502 -0.4293
 2820SOL    HW311053   4.939   6.288   6.008 -0.7604 -0.8326 -1.5884
 2820SOL    MW411054   4.858   6.310   6.033  0.0733 -0.4215  0.1703
 2821SOL     OW11055   3.849   0.389   4.169 -0.3445  1.0526 -0.5945
 2821SOL    HW211056   3.886   0.380   4.257  2.8846  0.9894 -1.8257
 2821SOL    HW311057   3.832   0.298   4.142  0.1693  0.9490 -0.5900
 2821SOL    MW411058   3.852   0.376   4.177 -0.0962 -0.1841  0.1959
 2822SOL     OW11059   4.904   0.022   2.510 -0.1700 -0.4277  0.2991
 2822SOL    HW211060   4.898   0.113   2.482 -0.8344 -0.4536  0.3490
 2822SOL    HW311061   4.998   0.008   2.524  0.0015  0.0612 -0.3134
 2822SOL    MW411062   4.916   0.032   2.508 -0.0690  0.3721 -0.0722
 2823SOL     OW11063   1.920   3.950   5.137 -0.0158 -0.0834 -0.1047
 2823SOL    HW211064   1.924   3.897   5.217  1.0499 -0.1646 -0.1872
 2823SOL    HW311065   1.870   4.027   5.161  0.0799 -0.2272  0.5781
 2823SOL    MW411066   1.914   3.953   5.150  0.2583 -0.0048  0.3553
 2824SOL     OW11067   1.794   6.352   6.308 -0.2894 -0.4396 -0.5105
 2824SOL    HW211068   1.842   6.269   6.305  2.2953  0.8772  0.8317
 2824SOL    HW311069   1.862   6.419   6.299 -1.9047  1.5760  1.2906
 2824SOL    MW411070   1.809   6.350   6.307 -0.2902 -0.3760 -0.2983
 2825SOL     OW11071   0.971   5.018   0.713  0.0504  0.6679 -0.3208
 2825SOL    HW211072   0.913   4.942   0.714  1.4244 -0.4328 -0.5887
 2825SOL    HW311073   0.948   5.067   0.792  0.3090 -0.9799  0.8466
 2825SOL    MW411074   0.960   5.014   0.724 -0.2521 -0.3756  0.4877
 2826SOL     OW11075   0.783   4.064   2.503 -0.1799 -0.4283  0.4121
 2826SOL    HW211076   0.876   4.055   2.482 -0.3623 -1.6050  0.0402
 2826SOL    HW311077   0.782   4.108   2.588  0.6392  1.7231 -0.6160
 2826SOL    MW411078   0.795   4.069   2.511 -0.1065  0.3139 -0.4299
 2827SOL     OW11079   3.206   0.745   5.692  0.1802 -0.2624 -0.1115
 2827SOL    HW211080   3.288   0.716   5.651 -0.6023 -1.2963 -1.0088
 2827SOL    HW311081   3.148   0.669   5.685 -0.5348  0.1086  1.4389
 2827SOL    MW411082   3.209   0.731   5.685 -0.0817 -0.0719 -0.0734
 2828SOL     OW11083   0.406   2.894   6.142 -0.2066 -0.6766  0.4072
 2828SOL    HW211084   0.325   2.919   6.099  0.2017  0.6048  0.3460
 2828SOL    HW311085   0.474   2.910   6.076  0.1104 -1.8245  0.4234
 2828SOL    MW411086   0.405   2.899   6.127 -0.0705  0.1570 -0.2728
 2829SOL     OW11087   5.720   1.242   1.076  0.5350 -0.4631  0.1947
 2829SOL    HW211088   5.687   1.273   0.991  0.2629 -0.4859  0.2906
 2829SOL    HW311089   5.779   1.312   1.105  0.3124 -0.2623  0.1757
 2829SOL    MW411090   5.723   1.256   1.069 -0.3165 -0.5834 -1.0056
 2830SOL     OW11091   2.466   5.333   3.074 -0.0160  0.0081 -0.1642
 2830SOL    HW211092   2.378   5.299   3.058  0.5722 -2.2541  1.0786
 2830SOL    HW311093   2.456   5.428   3.064 -2.7494 -0.0961  0.6098
 2830SOL    MW411094   2.453   5.341   3.070 -0.1259  0.4216  0.1699
 2831SOL     OW11095   6.321   5.004   0.112  0.6218 -0.5585 -0.2140
 2831SOL    HW211096   6.247   4.984   0.170  0.8827  0.0231  0.3368
 2831SOL    HW311097   6.325   4.930   0.052 -0.4877 -0.5382 -0.3355
 2831SOL    MW411098   6.311   4.992   0.112  0.3758  1.1580  0.0791
 2832SOL     OW11099   2.543   4.810   4.269  0.4548 -0.1998 -0.2824
 2832SOL    HW211100   2.519   4.887   4.218 -0.2599 -0.1456  0.1216
 2832SOL    HW311101   2.557   4.843   4.358  1.6163 -0.3059 -0.4148
 2832SOL    MW411102   2.542   4.824   4.274 -0.4794 -0.0649  0.1056
 2833SOL     OW11103   0.520   1.341   4.801  0.1566 -0.4682  0.3229
 2833SOL    HW211104   0.516   1.248   4.825  0.2897 -0.0696  2.0359
 2833SOL    HW311105   0.453   1.383   4.856  0.3432  0.4971 -0.1703
 2833SOL    MW411106   0.511   1.334   4.811 -0.3974  0.0762 -0.6487
 2834SOL     OW11107   5.516   0.494   3.388  0.2271 -0.4229  0.4204
 2834SOL    HW211108   5.518   0.590   3.383 -0.8966 -0.4234 -0.3042
 2834SOL    HW311109   5.598   0.471   3.431  0.7517  0.8362  0.1375
 2834SOL    MW411110   5.527   0.504   3.393  0.2147 -0.4368  0.2371
 2835SOL     OW11111   0.508   2.185   2.336 -0.2753 -0.0795 -0.1041
 2835SOL    HW211112   0.543   2.266   2.373 -2.6180  0.8427  0.2589
 2835SOL    HW311113   0.585   2.127   2.327  1.7164  2.5855 -1.6089
 2835SOL    MW411114   0.523   2.188   2.339 -0.3462  0.4263 -0.2386
 2836SOL     OW11115   2.140   1.125   1.909  0.2997  0.0835  0.4760
 2836SOL    HW211116   2.180   1.167   1.832 -1.1874  0.6488 -0.0197
 2836SOL    HW311117   2.164   1.182   1.982  3.2155 -1.3703  0.8223
 2836SOL    MW411118   2.148   1.138   1.909 -0.7649  0.2694  0.5595
 2837SOL     OW11119   5.309   4.715   0.859  0.1699  0.5390  0.0181
 2837SOL    HW211120   5.321   4.703   0.764 -2.4835  2.0861 -0.6139
 2837SOL    HW311121   5.295   4.626   0.892 -1.8647  0.1671 -1.6013
 2837SOL    MW411122   5.309   4.702   0.851  0.0300 -0.0868  0.2695
 2838SOL     OW11123   5.612   3.887   2.684  0.1364  0.3751 -0.6938
 2838SOL    HW211124   5.634   3.832   2.759 -0.6159 -1.0971 -1.5007
 2838SOL    HW311125   5.613   3.827   2.609  0.3308  1.6930 -1.7895
 2838SOL    MW411126   5.615   3.872   2.684  0.0442 -0.0439  0.0120
 2839SOL     OW11127   3.638   3.748   3.617  0.4055  0.5428  0.1767
 2839SOL    HW211128   3.733   3.752   3.622  0.3422  0.8636  4.6708
 2839SOL    HW311129   3.609   3.835   3.646 -1.2122 -0.2646  1.1108
 2839SOL    MW411130   3.647   3.760   3.621  0.0678 -0.1512 -0.5186
 2840SOL     OW11131   1.656   1.266   3.817  0.2824 -0.2626  0.3195
 2840SOL    HW211132   1.751   1.257   3.821  0.6010  2.4249  1.9660
 2840SOL    HW311133   1.622   1.180   3.838  2.2494 -1.8914 -2.4981
 2840SOL    MW411134   1.664   1.254   3.820  0.0999  0.0645  0.2087
 2841SOL     OW11135   3.123   2.457   4.850  0.5017  0.2221 -0.2592
 2841SOL    HW211136   3.059   2.385   4.846  0.2726  0.3224  1.2678
 2841SOL    HW311137   3.113   2.501   4.765 -0.8073 -0.3129 -0.4175
 2841SOL    MW411138   3.113   2.453   4.838 -0.3184  0.1307 -0.0072
 2842SOL     OW11139   1.195   3.816   0.961 -0.8379 -0.2380 -0.2914
 2842SOL    HW211140   1.179   3.906   0.991 -1.5050 -0.7513  0.9488
 2842SOL    HW311141   1.290   3.805   0.968 -0.6649  0.5977 -1.1435
 2842SOL    MW411142   1.206   3.827   0.966  0.1876 -0.5780  0.0407
 2843SOL     OW11143   5.481   4.957   0.747 -0.0251 -0.0935  0.0437
 2843SOL    HW211144   5.489   4.909   0.829  0.7725  0.9499  0.5991
 2843SOL    HW311145   5.412   5.021   0.763 -0.4843 -0.4666 -0.4062
 2843SOL    MW411146   5.473   4.959   0.760 -0.0547 -0.2539  0.0893
 2844SOL     OW11147   2.968   3.655   3.229 -0.2942  0.2117 -0.3186
 2844SOL    HW211148   2.930   3.729   3.182  1.4566  2.4305  1.5035
 2844SOL    HW311149   3.062   3.665   3.217  0.0553 -0.7047  1.3578
 2844SOL    MW411150   2.975   3.666   3.221  0.1349 -0.6298 -0.0605
 2845SOL     OW11151   3.909   6.113   3.501  0.4799 -0.1511 -0.0266
 2845SOL    HW211152   3.853   6.113   3.579  0.6122 -2.4174  0.1329
 2845SOL    HW311153   3.849   6.127   3.428  0.0973  0.1433  0.3392
 2845SOL    MW411154   3.894   6.115   3.502 -0.1614 -0.2325  0.2423
 2846SOL     OW11155   5.922   5.864   4.929  0.2915  0.6193  0.5332
 2846SOL    HW211156   5.999   5.815   4.900 -1.0846 -1.1380 -0.3394
 2846SOL    HW311157   5.878   5.890   4.848 -1.4714 -0.8312  0.9643
 2846SOL    MW411158   5.927   5.861   4.915  0.3133  0.4519 -0.1532
 2847SOL     OW11159   1.661   4.131   4.635  0.1501  0.0466 -0.7415
 2847SOL    HW211160   1.630   4.125   4.725 -0.0619 -0.6693 -0.8574
 2847SOL    HW311161   1.721   4.206   4.635  1.5110 -1.0001  0.4108
 2847SOL    MW411162   1.665   4.140   4.647 -0.0249  0.1072  0.1416
 2848SOL     OW11163   4.650   1.500   3.125 -0.6010 -0.1703 -0.7667
 2848SOL    HW211164   4.616   1.535   3.207  0.1937 -1.5859  0.2282
 2848SOL    HW311165   4.671   1.577   3.073 -1.0841  0.7760  0.3788
 2848SOL    MW411166   4.649   1.515   3.129  0.1203 -0.1271 -0.0493
 2849SOL     OW11167   2.113   4.591   0.919 -0.2463  0.2621  0.6687
 2849SOL    HW211168   2.074   4.610   0.834  0.2469  0.6539  0.5248
 2849SOL    HW311169   2.041   4.555   0.971 -0.1907 -1.4582 -0.4000
 2849SOL    MW411170   2.099   4.589   0.915 -0.9690 -0.9038  0.5339
 2850SOL     OW11171   3.009   1.307   1.864  0.7483 -0.0952 -0.2056
 2850SOL    HW211172   3.021   1.277   1.954 -1.8212  0.0142  0.2335
 2850SOL    HW311173   3.032   1.231   1.810 -1.2867 -1.4381  0.7139
 2850SOL    MW411174   3.014   1.293   1.869 -0.1447  0.2750 -0.3693
 2851SOL     OW11175   3.208   5.752   5.461  0.2362 -0.2983 -0.3301
 2851SOL    HW211176   3.249   5.723   5.380 -1.0998 -0.4177 -0.9934
 2851SOL    HW311177   3.168   5.673   5.498  0.2302 -0.1114  0.0733
 2851SOL    MW411178   3.208   5.738   5.455  0.0669  0.0431  0.0926
 2852SOL     OW11179   1.877   2.306   4.410 -0.3331  0.5352 -0.6097
 2852SOL    HW211180   1.786   2.335   4.421 -0.6793 -0.5963 -0.2561
 2852SOL    HW311181   1.901   2.269   4.495  0.8474  1.7882 -0.3768
 2852SOL    MW411182   1.868   2.305   4.422 -0.0318 -0.1189 -0.4231
 2853SOL     OW11183   6.229   1.938   0.163  0.0066 -0.5179  0.4888
 2853SOL    HW211184   6.303   1.885   0.194  0.0247  0.3375  1.9660
 2853SOL    HW311185   6.153   1.900   0.207 -0.3829 -1.0244 -0.5816
 2853SOL    MW411186   6.229   1.926   0.173  0.3626  0.1588  0.5957
 2854SOL     OW11187   4.605   4.255   3.628  0.1130  0.0766 -0.1908
 2854SOL    HW211188   4.663   4.197   3.677  0.0727 -1.0239 -1.3993
 2854SOL    HW311189   4.657   4.282   3.552  0.1487  1.6870  0.3515
 2854SOL    MW411190   4.620   4.251   3.624  0.5018  0.0513  0.1204
 2855SOL     OW11191   4.949   4.120   6.265 -0.1666  0.2848 -0.7264
 2855SOL    HW211192   5.019   4.055   6.253  0.3785  0.9002 -0.9087
 2855SOL    HW311193   4.919   4.139   6.176  0.6230  1.3048 -0.7894
 2855SOL    MW411194   4.954   4.114   6.252 -0.4475  0.1032  0.0367
 2856SOL     OW11195   0.820   2.296   1.986  0.5660  0.6370 -0.3848
 2856SOL    HW211196   0.895   2.261   2.034 -0.1983 -0.0174  0.3628
 2856SOL    HW311197   0.747   2.239   2.010 -0.4218  1.9128 -0.2190
 2856SOL    MW411198   0.820   2.284   1.996  0.5398  0.7144 -0.2483
 2857SOL     OW11199   2.987   2.569   3.096  0.3128 -0.0291 -0.0927
 2857SOL    HW211200   3.001   2.474   3.088 -1.7041 -0.3839 -0.0778
 2857SOL    HW311201   3.063   2.608   3.055  0.8833 -1.6716 -0.6881
 2857SOL    MW411202   2.999   2.562   3.090 -0.2057 -0.7089  0.2188
 2858SOL     OW11203   0.529   5.903   2.451  0.4813 -0.2070 -0.1092
 2858SOL    HW211204   0.460   5.912   2.386  0.3228  0.5238  0.1528
 2858SOL    HW311205   0.610   5.922   2.403  0.4306 -0.3187 -0.2397
 2858SOL    MW411206   0.531   5.906   2.437  0.2020 -0.7342  0.2129
 2859SOL     OW11207   2.635   1.635   1.168 -0.8667  0.6127  0.3643
 2859SOL    HW211208   2.712   1.631   1.110 -0.5248  0.9020  0.7882
 2859SOL    HW311209   2.599   1.722   1.154 -1.7515  0.1050 -0.6193
 2859SOL    MW411210   2.641   1.646   1.159 -0.1898 -0.2658 -0.2905
 2860SOL     OW11211   4.344   2.270   1.473  0.4124 -0.2528 -0.1671
 2860SOL    HW211212   4.305   2.254   1.559  1.0468 -1.6443 -0.0964
 2860SOL    HW311213   4.432   2.232   1.480  1.2526  1.5105 -0.7748
 2860SOL    MW411214   4.351   2.263   1.485 -0.0933 -0.0105 -0.6289
 2861SOL     OW11215   1.565   2.144   1.309  0.5204  0.3490  0.3679
 2861SOL    HW211216   1.513   2.131   1.389  1.1261  0.1808  0.7458
 2861SOL    HW311217   1.541   2.232   1.279 -1.1814 -0.3362 -0.3832
 2861SOL    MW411218   1.555   2.154   1.316 -0.1058  0.5936 -0.1543
 2862SOL     OW11219   0.319   1.485   2.945  0.6616  0.1597 -0.0503
 2862SOL    HW211220   0.348   1.459   2.858 -2.7267 -1.6154 -0.8115
 2862SOL    HW311221   0.321   1.403   2.996 -1.4038  0.2347  0.2298
 2862SOL    MW411222   0.323   1.470   2.940  0.0840  0.1112 -0.1370
 2863SOL     OW11223   5.331   4.258   3.336  0.5578  0.0339  0.0076
 2863SOL    HW211224   5.249   4.216   3.362 -0.6233  1.3608 -1.3776
 2863SOL    HW311225   5.393   4.233   3.404 -1.3460  0.1803  1.9184
 2863SOL    MW411226   5.328   4.249   3.348  0.0343  0.1021  0.5343
 2864SOL     OW11227   1.634   5.913   1.040  0.1558 -0.6971  0.3296
 2864SOL    HW211228   1.635   5.986   1.102  0.3470 -0.4915  0.0863
 2864SOL    HW311229   1.549   5.872   1.053  0.3680 -0.9294  1.0484
 2864SOL    MW411230   1.623   5.917   1.050  0.2970 -1.1627 -0.2603
 2865SOL     OW11231   0.492   6.334   5.865 -0.1718 -0.2226  0.3544
 2865SOL    HW211232   0.409   6.345   5.912  0.0733  0.8282  0.5767
 2865SOL    HW311233   0.543   6.274   5.920 -0.4442 -0.1475  0.6934
 2865SOL    MW411234   0.488   6.328   5.879  0.2635  0.3143 -0.0889
 2866SOL     OW11235   5.829   1.043   3.319 -0.2086 -0.2424 -0.3138
 2866SOL    HW211236   5.738   1.060   3.344 -0.3108  2.2063 -1.9538
 2866SOL    HW311237   5.823   0.984   3.244 -0.2658 -1.9657  0.9969
 2866SOL    MW411238   5.816   1.038   3.312 -0.4285 -0.4534  0.1694
 2867SOL     OW11239   0.990   2.274   1.602  0.5671 -0.2602 -0.3390
 2867SOL    HW211240   1.028   2.284   1.515  0.0003  2.5086 -0.3600
 2867SOL    HW311241   0.897   2.292   1.590  0.3993 -0.3580  0.7480
 2867SOL    MW411242   0.983   2.278   1.589 -0.2524 -0.2441 -0.0270
 2868SOL     OW11243   6.300   2.218   0.814  0.0162  0.5135 -0.2104
 2868SOL    HW211244   6.318   2.160   0.740  0.1216  0.3014 -0.0200
 2868SOL    HW311245   6.344   2.176   0.888 -1.9707 -0.5110  0.4771
 2868SOL    MW411246   6.308   2.205   0.814 -0.1945  0.0113 -0.2729
 2869SOL     OW11247   4.861   3.843   0.479 -0.4269  0.4029  0.0855
 2869SOL    HW211248   4.895   3.919   0.432  1.4147  0.0154  0.7053
 2869SOL    HW311249   4.935   3.811   0.530 -1.5610 -0.9467  0.9758
 2869SOL    MW411250   4.875   3.849   0.479  0.4384  0.0358  0.9562
 2870SOL     OW11251   2.349   2.464   5.790 -0.1790 -0.6225 -0.0136
 2870SOL    HW211252   2.277   2.504   5.839 -0.6613 -0.2785 -0.9896
 2870SOL    HW311253   2.320   2.374   5.773 -0.7766 -0.2099 -1.1989
 2870SOL    MW411254   2.336   2.457   5.794 -0.2034 -0.2667  0.2286
 2871SOL     OW11255   3.032   3.370   2.334 -0.1247  0.3562 -0.7768
 2871SOL    HW211256   2.973   3.331   2.270 -0.9779 -1.7995  1.1600
 2871SOL    HW311257   3.118   3.336   2.311 -0.2394  0.4895 -1.4215
 2871SOL    MW411258   3.035   3.360   2.323 -0.3633  0.1756  0.4836
 2872SOL     OW11259   1.010   4.081   1.384  0.4540 -0.4068  0.2728
 2872SOL    HW211260   1.091   4.074   1.334 -0.4537 -1.9628 -1.0892
 2872SOL    HW311261   1.000   3.997   1.427 -0.8679 -0.5961 -0.3275
 2872SOL    MW411262   1.019   4.069   1.383  0.0264  0.4164 -0.6687
 2873SOL     OW11263   0.676   0.954   4.302 -0.2339  0.0940  0.2649
 2873SOL    HW211264   0.691   1.020   4.370 -0.0293  0.0652  0.2500
 2873SOL    HW311265   0.733   0.981   4.230 -1.7859  1.1701 -0.6400
 2873SOL    MW411266   0.686   0.967   4.301  0.1833 -0.1365  0.2344
 2874SOL     OW11267   2.020   6.344   3.459 -0.1586 -0.3343  0.5115
 2874SOL    HW211268   2.011   6.363   3.366  0.5327  0.3401  0.5727
 2874SOL    HW311269   1.977   6.418   3.502 -1.1608 -1.0288  0.7307
 2874SOL    MW411270   2.013   6.356   3.452 -0.5172 -0.1939  0.3950
 2875SOL     OW11271   6.411   3.890   1.393 -0.1327 -0.5574 -0.1466
 2875SOL    HW211272   6.464   3.906   1.470  0.8947  0.3632 -1.0044
 2875SOL    HW311273   6.472   3.856   1.327 -0.5035  0.7906 -1.2428
 2875SOL    MW411274   6.426   3.888   1.394  0.1837 -0.3149  0.2115
 2876SOL     OW11275   1.231   0.570   1.706  0.1354  1.0089  0.0273
 2876SOL    HW211276   1.195   0.598   1.790 -1.1944 -2.7252  0.8721
 2876SOL    HW311277   1.317   0.533   1.727 -0.8238 -1.3045  0.0721
 2876SOL    MW411278   1.238   0.569   1.720  0.6354 -0.4242  0.4636
 2877SOL     OW11279   5.557   3.307   3.462 -0.3410  1.0181 -0.3127
 2877SOL    HW211280   5.519   3.313   3.375  0.3381  0.3690 -0.6650
 2877SOL    HW311281   5.483   3.282   3.519 -0.6520  0.7990 -0.8068
 2877SOL    MW411282   5.542   3.304   3.458 -0.4179 -0.1659  0.4085
 2878SOL     OW11283   4.309   5.690   3.448 -0.2115 -0.4088 -0.1659
 2878SOL    HW211284   4.277   5.608   3.411  1.5893 -1.2933  0.1233
 2878SOL    HW311285   4.280   5.757   3.386 -2.3933 -1.1293 -0.0005
 2878SOL    MW411286   4.301   5.688   3.435  0.0580  0.7239  0.4905
 2879SOL     OW11287   5.506   1.034   4.667  0.0933 -0.1432  0.5655
 2879SOL    HW211288   5.553   0.961   4.707 -1.9584 -1.1594  1.2841
 2879SOL    HW311289   5.549   1.048   4.583 -0.4616 -3.3291 -0.3788
 2879SOL    MW411290   5.518   1.026   4.661  0.3524 -0.2376 -0.7140
 2880SOL     OW11291   1.619   0.518   0.802  0.4363 -0.3704  0.0214
 2880SOL    HW211292   1.550   0.583   0.787  1.1776  0.1310 -1.4453
 2880SOL    HW311293   1.664   0.548   0.881  1.3061  1.4561 -1.0847
 2880SOL    MW411294   1.616   0.530   0.811 -0.1128 -0.1418  0.1886
 2881SOL     OW11295   4.605   3.647   0.197 -0.4584 -0.5243  0.3249
 2881SOL    HW211296   4.699   3.662   0.209 -0.4134 -0.6557  0.1423
 2881SOL    HW311297   4.575   3.618   0.282 -0.1269 -1.5239  0.1153
 2881SOL    MW411298   4.614   3.645   0.210  0.4442 -0.7420  0.5693
 2882SOL     OW11299   2.113   2.061   3.272  0.0598  0.2268  0.0991
 2882SOL    HW211300   2.039   2.120   3.256 -1.3487 -1.4146  0.2959
 2882SOL    HW311301   2.121   2.010   3.192  2.4853  1.8391 -0.8027
 2882SOL    MW411302   2.104   2.062   3.260  0.0202  0.4703  0.2663
 2883SOL     OW11303   5.193   0.320   0.891  0.4678 -0.1366  0.4686
 2883SOL    HW211304   5.236   0.402   0.917 -1.3410  0.8423  0.4800
 2883SOL    HW311305   5.126   0.306   0.958 -0.7346 -0.4065 -0.7625
 2883SOL    MW411306   5.190   0.329   0.903 -0.0329  0.1787  0.5336
 2884SOL     OW11307   3.356   4.860   3.808  0.2232  0.1673  0.2596
 2884SOL    HW211308   3.400   4.801   3.747  0.2633 -1.6273  1.9046
 2884SOL    HW311309   3.267   4.825   3.815  0.5884 -0.4722  2.1592
 2884SOL    MW411310   3.350   4.848   3.801  0.3809 -0.1237  0.2026
 2885SOL     OW11311   5.891   3.829   2.327 -0.5534  0.0283 -0.1909
 2885SOL    HW211312   5.942   3.909   2.337  1.6678 -1.1496 -1.3729
 2885SOL    HW311313   5.864   3.829   2.235  1.2556 -1.4976 -0.7918
 2885SOL    MW411314   5.894   3.839   2.316  0.8772  0.3743  0.6680
 2886SOL     OW11315   5.545   3.928   3.937 -1.0417 -0.9160  0.4586
 2886SOL    HW211316   5.476   3.977   3.893  0.2879  0.6900  0.0725
 2886SOL    HW311317   5.624   3.981   3.925 -0.0858 -1.7838  2.4283
 2886SOL    MW411318   5.547   3.942   3.930  0.1527 -0.3348 -0.0823
 2887SOL     OW11319   1.081   3.209   4.939  0.1936  0.4747  0.0506
 2887SOL    HW211320   1.066   3.293   4.983  0.4706 -0.1483  1.3839
 2887SOL    HW311321   1.173   3.189   4.956  0.2636  0.1474 -0.7020
 2887SOL    MW411322   1.091   3.217   4.947  0.1030  0.2069  0.4997
 2888SOL     OW11323   4.459   3.570   4.891  0.0051  0.7601 -0.3917
 2888SOL    HW211324   4.437   3.630   4.963  0.5451  1.1165 -0.5216
 2888SOL    HW311325   4.441   3.483   4.927 -0.4941  0.9761 -0.0975
 2888SOL    MW411326   4.454   3.566   4.906 -0.2425 -0.8181  0.8923
 2889SOL     OW11327   1.342   1.566   6.351 -0.5767 -0.3897 -0.4812
 2889SOL    HW211328   1.324   1.529   6.265 -1.4715  0.0745 -0.5060
 2889SOL    HW311329   1.413   1.629   6.335 -1.3682  0.3861 -1.0723
 2889SOL    MW411330   1.349   1.570   6.337 -0.6283  0.7085 -0.6936
 2890SOL     OW11331   2.721   0.982   5.472 -0.5519  0.8477  0.4151
 2890SOL    HW211332   2.699   0.910   5.413  2.6079 -0.7331  0.9571
 2890SOL    HW311333   2.674   1.057   5.437  1.0128  0.0113 -4.1170
 2890SOL    MW411334   2.712   0.982   5.460  0.2768  0.5484  0.7084
 2891SOL     OW11335   6.244   6.268   3.836 -0.1910  0.4698  0.4096
 2891SOL    HW211336   6.279   6.300   3.919 -0.9746 -2.2468  1.9218
 2891SOL    HW311337   6.314   6.213   3.800 -1.0955 -1.2381  1.1297
 2891SOL    MW411338   6.258   6.265   3.842  0.1878  0.8831 -0.3508
 2892SOL     OW11339   1.821   4.187   3.043  0.0824  1.1567 -0.0227
 2892SOL    HW211340   1.820   4.226   3.131 -0.0444 -0.2428  0.6095
 2892SOL    HW311341   1.913   4.194   3.016  0.6335 -0.5115  1.2187
 2892SOL    MW411342   1.833   4.193   3.051  0.1137 -0.1125 -0.2674
 2893SOL     OW11343   0.938   2.668   0.643  0.0885 -0.3308 -0.2247
 2893SOL    HW211344   0.908   2.751   0.680  0.0672 -0.0927 -0.7600
 2893SOL    HW311345   0.887   2.658   0.563 -0.3993 -1.2039  0.1783
 2893SOL    MW411346   0.928   2.677   0.637  0.4158 -0.8565  0.6687
 2894SOL     OW11347   0.325   2.832   0.954  0.3610 -0.3538  0.1926
 2894SOL    HW211348   0.397   2.876   0.909  0.5442 -1.8456 -1.0625
 2894SOL    HW311349   0.321   2.745   0.914 -1.4180 -0.7040  1.0207
 2894SOL    MW411350   0.334   2.826   0.943  0.2533  0.3781  0.0463
 2895SOL     OW11351   1.430   3.760   5.513  0.2690  0.3055  0.8555
 2895SOL    HW211352   1.349   3.750   5.463 -0.4812  0.1721  2.0700
 2895SOL    HW311353   1.463   3.846   5.487 -0.1307  0.2622  0.1800
 2895SOL    MW411354   1.424   3.770   5.503 -0.3855  0.2269 -0.1302
 2896SOL     OW11355   0.759   1.242   4.353 -0.3808  0.7325  0.0050
 2896SOL    HW211356   0.800   1.267   4.269 -0.8501  0.5593 -0.2794
 2896SOL    HW311357   0.666   1.262   4.341 -0.8858 -1.6480 -0.4446
 2896SOL    MW411358   0.752   1.248   4.340 -0.1920 -0.5405 -0.1809
 2897SOL     OW11359   1.548   5.397   4.135  0.4245 -0.6670  0.7483
 2897SOL    HW211360   1.469   5.388   4.188  1.9922 -1.2254  3.1030
 2897SOL    HW311361   1.579   5.486   4.153 -0.1614 -0.0674 -0.9844
 2897SOL    MW411362   1.541   5.408   4.144  0.0746 -1.0219 -0.1144
 2898SOL     OW11363   0.504   2.170   5.324 -0.1810 -0.0996 -0.0394
 2898SOL    HW211364   0.468   2.082   5.336  0.0606 -0.2878 -0.6663
 2898SOL    HW311365   0.432   2.229   5.347 -0.0601 -0.4448  1.3024
 2898SOL    MW411366   0.490   2.166   5.329  0.0644 -0.4466  0.0609
 2899SOL     OW11367   5.074   1.579   0.187  0.5646 -0.3835 -0.3287
 2899SOL    HW211368   4.998   1.637   0.181  0.5347 -0.5016 -1.1856
 2899SOL    HW311369   5.109   1.594   0.275 -0.7361 -0.6796  0.2727
 2899SOL    MW411370   5.068   1.588   0.198 -0.5071 -0.2610  1.2882
 2900SOL     OW11371   4.597   1.512   1.050  0.5149  0.2855 -0.3256
 2900SOL    HW211372   4.689   1.539   1.053 -0.0494  2.2819  0.7597
 2900SOL    HW311373   4.548   1.592   1.070 -1.5209 -0.4791 -1.8793
 2900SOL    MW411374   4.603   1.527   1.053  0.3886  0.0799  0.0222
 2901SOL     OW11375   0.045   0.829   0.825 -0.2546  0.3966 -0.1238
 2901SOL    HW211376  -0.000   0.897   0.774  0.2625  0.6410 -0.2553
 2901SOL    HW311377   0.137   0.852   0.821 -0.0794 -0.2634 -0.0892
 2901SOL    MW411378   0.051   0.841   0.818 -0.1413  0.3805 -0.2360
 2902SOL     OW11379   3.933   3.474   1.709 -0.0097 -0.2110 -0.2774
 2902SOL    HW211380   3.903   3.440   1.625 -1.7611  2.1695 -0.7169
 2902SOL    HW311381   3.984   3.552   1.687 -0.4851  0.4395  0.8343
 2902SOL    MW411382   3.935   3.480   1.695 -0.2802 -0.1440 -0.4548
 2903SOL     OW11383   0.559   5.967   2.117  0.2545  0.7177  0.8820
 2903SOL    HW211384   0.482   5.978   2.172 -0.3395 -1.0542  0.4605
 2903SOL    HW311385   0.628   5.939   2.178 -0.1339 -0.2334  0.9041
 2903SOL    MW411386   0.558   5.965   2.132 -0.4347  0.1899  0.3441
 2904SOL     OW11387   3.775   3.052   3.238  0.5426  0.0026 -0.1004
 2904SOL    HW211388   3.864   3.082   3.258 -0.4400  2.9543  0.3535
 2904SOL    HW311389   3.783   3.009   3.153  2.2451  1.1465 -0.5707
 2904SOL    MW411390   3.788   3.050   3.230  0.1697 -0.4623  0.5638
 2905SOL     OW11391   3.840   3.888   0.196 -0.2507  0.4856  0.3186
 2905SOL    HW211392   3.822   3.982   0.197  0.9820  0.7309  0.2939
 2905SOL    HW311393   3.884   3.870   0.279 -1.4947 -0.3027  0.8433
 2905SOL    MW411394   3.843   3.898   0.207 -0.0059  0.3702 -0.2230
 2906SOL     OW11395   1.207   1.181   6.173 -0.2571 -0.4797 -0.4099
 2906SOL    HW211396   1.170   1.110   6.226  0.1899  0.8871  1.8626
 2906SOL    HW311397   1.297   1.190   6.205 -0.3657  1.1935 -0.5058
 2906SOL    MW411398   1.214   1.172   6.184 -0.0222 -0.3971 -0.0431
 2907SOL     OW11399   1.935   5.687   1.833 -0.2827  0.3465  0.4793
 2907SOL    HW211400   1.880   5.621   1.790 -0.6299  0.8088  0.2022
 2907SOL    HW311401   1.873   5.739   1.885  0.2287 -0.7067  2.2217
 2907SOL    MW411402   1.919   5.685   1.834 -0.0608  0.2410 -0.4528
 2908SOL     OW11403   3.537   2.140   5.861 -0.0141 -0.4234 -0.3274
 2908SOL    HW211404   3.494   2.225   5.852 -0.2088 -0.4243  0.4886
 2908SOL    HW311405   3.473   2.087   5.909  0.8627 -0.4393  0.8783
 2908SOL    MW411406   3.523   2.144   5.866  0.3486  0.3622  0.7988
 2909SOL     OW11407   0.878   1.028   6.332  0.1668  0.4202 -0.4666
 2909SOL    HW211408   0.823   0.961   6.371 -0.6038 -0.6468 -3.1642
 2909SOL    HW311409   0.818   1.084   6.284  1.0542  1.6669 -0.1825
 2909SOL    MW411410   0.863   1.026   6.331 -0.1723 -0.0163 -0.4179
 2910SOL     OW11411   4.693   1.554   2.640 -0.4629  0.0026 -0.8514
 2910SOL    HW211412   4.708   1.512   2.725 -1.7347 -0.0716 -0.6422
 2910SOL    HW311413   4.735   1.496   2.577 -1.3828 -1.1216 -0.4720
 2910SOL    MW411414   4.701   1.541   2.643 -0.1879  0.2294 -0.1977
 2911SOL     OW11415   4.035   2.400   4.689  0.0427 -0.4770  0.2904
 2911SOL    HW211416   4.044   2.483   4.734  1.1833 -0.5715  0.2649
 2911SOL    HW311417   4.055   2.334   4.755  3.1741 -0.5757 -0.5963
 2911SOL    MW411418   4.039   2.402   4.703 -0.0395  0.3342 -0.1069
 2912SOL     OW11419   2.314   4.596   4.268  0.3109  0.1934 -0.1856
 2912SOL    HW211420   2.404   4.602   4.236 -0.0689  0.9498 -1.1877
 2912SOL    HW311421   2.279   4.519   4.224  0.6932 -0.5677  0.8235
 2912SOL    MW411422   2.321   4.587   4.258 -0.2188  0.2623 -0.3712
 2913SOL     OW11423   0.496   5.508   3.031  0.2317 -0.2143 -0.5740
 2913SOL    HW211424   0.574   5.516   2.977  2.1644  0.0688  2.0767
 2913SOL    HW311425   0.529   5.505   3.121 -2.8695  0.8922  0.7426
 2913SOL    MW411426   0.510   5.508   3.036 -0.1206 -0.2440  0.1970
 2914SOL     OW11427   5.815   5.460   5.959  0.0693 -0.1800  0.0940
 2914SOL    HW211428   5.900   5.439   5.919 -0.7977 -1.7977 -0.9920
 2914SOL    HW311429   5.778   5.376   5.983 -0.4868  0.6139  2.2534
 2914SOL    MW411430   5.822   5.446   5.957 -0.0541  0.1925 -0.3413
 2915SOL     OW11431   2.210   4.004   1.563 -0.7557 -0.0020  0.0232
 2915SOL    HW211432   2.275   4.072   1.545  0.4711 -0.4539  2.3936
 2915SOL    HW311433   2.136   4.027   1.508 -0.5488  3.5091  0.9630
 2915SOL    MW411434   2.209   4.016   1.553  0.2459 -0.9574  0.4532
 2916SOL     OW11435   3.279   0.817   5.010 -0.5713  0.2048  0.2248
 2916SOL    HW211436   3.184   0.819   5.023 -0.5427 -0.7768  0.6566
 2916SOL    HW311437   3.293   0.869   4.931 -1.6458 -1.0135 -0.8197
 2916SOL    MW411438   3.268   0.824   5.001 -0.3314  0.3678  0.6306
 2917SOL     OW11439   2.976   3.334   3.217 -0.4321  0.3059  0.0923
 2917SOL    HW211440   3.028   3.413   3.200 -1.3411  1.4881  2.3980
 2917SOL    HW311441   2.886   3.361   3.199 -0.6022 -0.7422 -0.7128
 2917SOL    MW411442   2.971   3.348   3.212 -0.1583 -0.0038  0.7822
 2918SOL     OW11443   3.682   0.092   3.598 -0.1984  0.0178 -0.0258
 2918SOL    HW211444   3.685   0.185   3.621  1.5300 -0.5224  2.3362
 2918SOL    HW311445   3.620   0.054   3.660 -0.0916 -0.5721 -0.2755
 2918SOL    MW411446   3.674   0.099   3.609 -0.1650  0.4109  0.1527
 2919SOL     OW11447   0.548   4.824   3.586  0.2202 -0.0584 -0.5148
 2919SOL    HW211448   0.563   4.736   3.552 -3.2349 -0.4699 -1.3557
 2919SOL    HW311449   0.493   4.866   3.520 -0.7423  1.6265  1.2504
 2919SOL    MW411450   0.542   4.818   3.573  0.3360  0.1932 -0.5961
 2920SOL     OW11451   3.866   3.440   5.580 -0.6013  0.0244 -0.0121
 2920SOL    HW211452   3.852   3.435   5.675 -1.1328 -0.7385 -0.1271
 2920SOL    HW311453   3.907   3.357   5.557 -1.3001 -0.1668 -0.5878
 2920SOL    MW411454   3.869   3.429   5.590 -0.3861  0.4708  0.0468
 2921SOL     OW11455   2.112   3.107   5.348 -0.3609 -0.4166  0.3131
 2921SOL    HW211456   2.025   3.066   5.348  0.4735 -2.2555  0.8021
 2921SOL    HW311457   2.158   3.065   5.275 -0.3547  1.7144 -1.0049
 2921SOL    MW411458   2.107   3.096   5.338  0.1500  0.5853  0.2890
 2922SOL     OW11459   3.029   1.241   0.383 -0.0047 -0.2709  0.1218
 2922SOL    HW211460   3.105   1.219   0.329  0.4503 -0.6294  0.8987
 2922SOL    HW311461   3.016   1.165   0.439 -2.6061 -1.3967 -1.7836
 2922SOL    MW411462   3.037   1.228   0.383 -0.1142 -0.0406  0.0154
 2923SOL     OW11463   1.284   2.589   5.529 -0.4835  0.1383 -0.1481
 2923SOL    HW211464   1.365   2.628   5.496  1.4590 -1.7693  1.9682
 2923SOL    HW311465   1.238   2.661   5.573  1.2597  0.8247  0.6291
 2923SOL    MW411466   1.288   2.604   5.531 -0.0308  0.3318 -0.3846
 2924SOL     OW11467   2.554   2.037   3.483 -0.2834 -0.1834 -0.7114
 2924SOL    HW211468   2.568   2.128   3.459  1.1167 -0.6554 -1.8478
 2924SOL    HW311469   2.488   2.040   3.553 -1.1924  1.5809 -1.5853
 2924SOL    MW411470   2.547   2.049   3.489  0.3240  0.3706 -0.0439
 2925SOL     OW11471   5.330   5.909   5.685 -0.2077 -0.1540  0.2037
 2925SOL    HW211472   5.297   5.826   5.720  0.7821 -0.9758 -0.7500
 2925SOL    HW311473   5.423   5.909   5.708 -0.3465  1.0473  0.8339
 2925SOL    MW411474   5.338   5.898   5.693 -0.2578 -0.8751 -0.0540
 2926SOL     OW11475   0.995   2.049   6.320 -0.5602  0.1433 -0.1075
 2926SOL    HW211476   0.965   2.002   6.243  1.0061  1.0809 -1.3522
 2926SOL    HW311477   0.954   2.135   6.313  0.9799  0.8401 -0.8945
 2926SOL    MW411478   0.986   2.054   6.309 -0.2774 -0.6387 -0.2427
 2927SOL     OW11479   2.269   5.028   1.282  0.2710 -0.7834 -0.0278
 2927SOL    HW211480   2.323   4.949   1.284  2.3646  0.5795  0.8074
 2927SOL    HW311481   2.228   5.031   1.369  0.3058 -0.8926 -0.0077
 2927SOL    MW411482   2.271   5.018   1.294  0.0235 -0.2953  0.2316
 2928SOL     OW11483   4.027   4.699   2.398 -0.0369 -0.1481 -0.8347
 2928SOL    HW211484   4.012   4.768   2.462 -0.1407 -0.8480 -0.0884
 2928SOL    HW311485   4.013   4.618   2.446  3.7459 -0.8736 -0.6193
 2928SOL    MW411486   4.023   4.697   2.413 -0.4434  0.5004  0.5115
 2929SOL     OW11487   6.015   2.606   0.894 -0.1479 -1.5896  0.2642
 2929SOL    HW211488   5.988   2.637   0.980 -1.5436  0.3510 -0.7867
 2929SOL    HW311489   5.965   2.526   0.880 -0.2483 -1.6687  1.0694
 2929SOL    MW411490   6.005   2.600   0.903 -0.1788 -0.0171 -0.3069
 2930SOL     OW11491   4.837   5.258   6.298  0.4566  0.3920  0.1992
 2930SOL    HW211492   4.756   5.258   6.247  1.0683  1.0593 -0.8259
 2930SOL    HW311493   4.851   5.350   6.319 -0.7707 -0.0118  3.2879
 2930SOL    MW411494   4.828   5.270   6.294 -0.0391  0.6784 -0.4492
 2931SOL     OW11495   5.750   4.686   4.930  0.2904 -0.2551 -0.2789
 2931SOL    HW211496   5.722   4.689   5.022 -1.8035 -1.4037 -0.8203
 2931SOL    HW311497   5.843   4.662   4.934  0.3866  0.2677  1.5381
 2931SOL    MW411498   5.759   4.683   4.943 -0.5593  0.2869  0.2610
 2932SOL     OW11499   4.418   5.973   1.953  0.1391  0.7558 -0.0182
 2932SOL    HW211500   4.422   5.960   2.048  2.4007  0.4160 -0.1219
 2932SOL    HW311501   4.354   5.909   1.923 -1.1439  1.3440  1.3255
 2932SOL    MW411502   4.410   5.963   1.962  0.5159 -0.0444 -0.1752
 2933SOL     OW11503   2.462   4.029   0.227  0.2176 -0.0902  0.0872
 2933SOL    HW211504   2.438   3.949   0.273 -0.5112 -0.6326 -1.2083
 2933SOL    HW311505   2.500   3.999   0.145  1.0909  0.8746  0.1199
 2933SOL    MW411506   2.464   4.015   0.222  0.1226  0.3516 -0.1005
 2934SOL     OW11507   6.174   3.308   2.561 -0.1380  0.1575  0.0578
 2934SOL    HW211508   6.124   3.235   2.525  2.2310 -1.4110 -0.2857
 2934SOL    HW311509   6.168   3.376   2.494 -0.0505 -0.8135 -0.9706
 2934SOL    MW411510   6.167   3.307   2.548 -0.3330  0.1000 -0.0930
 2935SOL     OW11511   3.917   1.936   5.312 -0.7150 -0.2466 -0.0072
 2935SOL    HW211512   3.883   2.024   5.295 -0.2333 -0.5473 -3.1014
 2935SOL    HW311513   3.890   1.885   5.236  2.5895 -1.6932 -0.3821
 2935SOL    MW411514   3.909   1.941   5.299 -0.4538  0.0831  0.1366
 2936SOL     OW11515   2.870   2.692   5.275  0.4422  0.1667 -0.0043
 2936SOL    HW211516   2.795   2.685   5.335  2.6133 -1.1513  2.7424
 2936SOL    HW311517   2.885   2.603   5.244  0.4450  0.5498 -1.1386
 2936SOL    MW411518   2.862   2.680   5.279  0.3390  0.1240 -0.2543
 2937SOL     OW11519   1.378   2.008   3.885 -0.6455  1.0357  0.3442
 2937SOL    HW211520   1.397   1.947   3.956  0.7438  0.5173 -0.4423
 2937SOL    HW311521   1.355   2.090   3.929 -2.2638  0.0699  1.4075
 2937SOL    MW411522   1.377   2.011   3.900  0.6960 -0.3672  0.8046
 2938SOL     OW11523   0.757   4.111   0.019 -0.2041 -0.1622  0.1179
 2938SOL    HW211524   0.731   4.201   0.036  0.7589  0.2896 -0.7340
 2938SOL    HW311525   0.841   4.101   0.065 -0.9612 -1.0739  1.3928
 2938SOL    MW411526   0.765   4.121   0.028 -0.0907  0.5787 -0.0068
 2939SOL     OW11527   4.297   2.789   2.817  0.2844  0.0656 -0.1213
 2939SOL    HW211528   4.231   2.842   2.862  0.2293 -0.4820  0.4613
 2939SOL    HW311529   4.248   2.736   2.756  0.2388  0.0105 -0.0369
 2939SOL    MW411530   4.282   2.789   2.815  0.8356  0.0115  0.4121
 2940SOL     OW11531   1.561   5.416   4.594 -0.1115  0.0665  0.6525
 2940SOL    HW211532   1.525   5.350   4.653 -1.9471 -0.2215 -0.6944
 2940SOL    HW311533   1.486   5.469   4.569  1.0931  1.8625  0.6469
 2940SOL    MW411534   1.546   5.414   4.599  0.2331 -0.5352  0.3149
 2941SOL     OW11535   6.320   4.053   4.962  0.1688 -0.0198 -0.0372
 2941SOL    HW211536   6.268   4.088   4.890  1.7676  1.8995 -0.3431
 2941SOL    HW311537   6.267   3.981   4.997 -0.8340 -0.8288 -2.8828
 2941SOL    MW411538   6.306   4.048   4.957  0.1706  0.4555 -0.4791
 2942SOL     OW11539   3.503   1.678   1.098  0.1943  0.1217  0.0719
 2942SOL    HW211540   3.541   1.609   1.153  1.0580 -0.5476 -1.3222
 2942SOL    HW311541   3.522   1.650   1.008 -1.0322  1.2796 -0.5696
 2942SOL    MW411542   3.510   1.665   1.093  0.6546  0.2798 -0.1268
 2943SOL     OW11543   4.816   2.788   4.281  0.0101  0.4163  0.8198
 2943SOL    HW211544   4.808   2.869   4.332 -2.9706  0.9389 -0.2359
 2943SOL    HW311545   4.771   2.723   4.335 -2.5973  0.8317 -0.6719
 2943SOL    MW411546   4.809   2.790   4.295 -0.3820 -0.4755  0.2296
 2944SOL     OW11547   5.113   5.861   3.251  0.0545 -0.8262  0.0439
 2944SOL    HW211548   5.188   5.913   3.278 -0.1758 -0.4636 -0.0083
 2944SOL    HW311549   5.106   5.876   3.156  0.6517 -1.8219 -0.1831
 2944SOL    MW411550   5.122   5.870   3.242  0.3701  0.0008  0.0388
 2945SOL     OW11551   1.794   2.722   3.965 -0.0973 -0.0044  0.3933
 2945SOL    HW211552   1.839   2.664   4.026 -0.2169  0.2659  0.7462
 2945SOL    HW311553   1.784   2.671   3.885  0.5065 -0.1933  0.4362
 2945SOL    MW411554   1.798   2.708   3.963 -0.5006 -0.6052  0.0737
 2946SOL     OW11555   4.910   6.058   0.278  0.3390  0.3235 -0.2874
 2946SOL    HW211556   4.854   5.989   0.314  1.1982  0.1419  0.7905
 2946SOL    HW311557   4.975   6.074   0.347 -0.7284  3.3282  0.1955
 2946SOL    MW411558   4.911   6.051   0.292  0.8429 -0.0428 -0.1803
 2947SOL     OW11559   0.577   4.705   4.125  0.2612  0.4569 -0.1252
 2947SOL    HW211560   0.670   4.682   4.128  0.8810  2.6178 -0.4528
 2947SOL    HW311561   0.565   4.743   4.038 -1.0644 -0.2313 -0.2614
 2947SOL    MW411562   0.588   4.707   4.114 -0.0190 -0.5002 -0.1639
 2948SOL     OW11563   2.871   2.070   1.483  0.3470  0.5663 -0.4517
 2948SOL    HW211564   2.960   2.039   1.501  0.8372  0.7104 -2.4337
 2948SOL    HW311565   2.819   2.034   1.555  2.0699  0.9223  1.0615
 2948SOL    MW411566   2.876   2.061   1.495 -0.4768  0.5076  0.2040
 2949SOL     OW11567   0.729   0.662   4.899 -0.2286  0.0566  0.2464
 2949SOL    HW211568   0.721   0.568   4.914 -2.7095  0.3016  0.9835
 2949SOL    HW311569   0.809   0.687   4.945  0.5099 -1.6861 -0.0248
 2949SOL    MW411570   0.738   0.653   4.907 -0.2728  0.5245 -0.3854
 2950SOL     OW11571   0.233   1.455   0.727  0.2896 -0.3620  0.0407
 2950SOL    HW211572   0.286   1.382   0.696 -0.7431 -0.7681 -0.8276
 2950SOL    HW311573   0.148   1.415   0.747 -0.4678  0.6832 -0.9855
 2950SOL    MW411574   0.228   1.440   0.726 -0.6473 -0.4501 -0.2149
 2951SOL     OW11575   1.473   2.986   0.174 -0.2377  0.0125  0.4102
 2951SOL    HW211576   1.541   2.919   0.184 -0.7338 -1.0442 -2.3469
 2951SOL    HW311577   1.518   3.069   0.190  0.8784 -0.8473  1.9297
 2951SOL    MW411578   1.488   2.988   0.177 -0.2726  0.2308  0.4283
 2952SOL     OW11579   3.545   5.917   4.895 -0.9253  0.8212  0.0019
 2952SOL    HW211580   3.519   5.925   4.987  0.9857  0.0385  0.6511
 2952SOL    HW311581   3.635   5.949   4.893 -0.2432 -1.0378 -1.2142
 2952SOL    MW411582   3.553   5.923   4.907  0.0872  0.3441  0.4656
 2953SOL     OW11583   4.347   4.971   5.162 -0.0275 -0.0846  0.3699
 2953SOL    HW211584   4.442   4.983   5.157 -0.0802 -0.1939 -1.1171
 2953SOL    HW311585   4.335   4.876   5.170 -0.0345 -0.1901 -0.7219
 2953SOL    MW411586   4.358   4.960   5.163  0.2969 -0.0494 -0.1406
 2954SOL     OW11587   2.384   5.319   5.298  0.3055 -0.2478 -0.3867
 2954SOL    HW211588   2.467   5.367   5.299  2.6350 -3.7942 -2.3197
 2954SOL    HW311589   2.339   5.351   5.219  1.5926 -0.7758 -1.3811
 2954SOL    MW411590   2.389   5.330   5.287 -0.0790  0.2744 -0.2006
 2955SOL     OW11591   3.408   5.876   1.170 -0.1262 -0.7196  0.5024
 2955SOL    HW211592   3.443   5.794   1.204 -0.0601 -0.7650  0.3210
 2955SOL    HW311593   3.335   5.896   1.229 -0.0432 -0.8247  0.6433
 2955SOL    MW411594   3.403   5.868   1.182  0.2191  0.0923  0.3278
 2956SOL     OW11595   4.481   3.965   5.807  0.1427  0.1405 -0.0078
 2956SOL    HW211596   4.461   3.905   5.880 -0.4845  1.9600  1.3826
 2956SOL    HW311597   4.416   4.035   5.815 -0.2940  0.1540 -2.6849
 2956SOL    MW411598   4.470   3.966   5.818  0.2199 -0.7722  0.2231
 2957SOL     OW11599   1.415   0.652   2.494 -0.4754  0.2686 -0.3177
 2957SOL    HW211600   1.343   0.593   2.470 -1.2683  0.8931  0.4589
 2957SOL    HW311601   1.492   0.595   2.497 -1.2231 -0.7483  0.4081
 2957SOL    MW411602   1.415   0.636   2.492 -0.6037 -0.1937  0.8112
 2958SOL     OW11603   1.650   0.007   0.312 -0.3835  0.3553 -0.0706
 2958SOL    HW211604   1.669   0.093   0.274  0.4345  0.5589  0.7927
 2958SOL    HW311605   1.641  -0.051   0.236  4.2782  0.0745 -0.6535
 2958SOL    MW411606   1.651   0.011   0.297  0.4362 -0.3220  0.7388
 2959SOL     OW11607   6.052   1.254   5.741  0.4458  0.4814  0.4146
 2959SOL    HW211608   6.100   1.259   5.824  0.7635  0.0206  0.2595
 2959SOL    HW311609   6.112   1.212   5.680  0.0677  0.4543  0.0514
 2959SOL    MW411610   6.066   1.249   5.744 -0.5683  0.5949 -0.4397
 2960SOL     OW11611   4.811   6.337   4.024  0.4145  0.5269  0.1348
 2960SOL    HW211612   4.871   6.411   4.011 -1.7430  2.1958 -1.0670
 2960SOL    HW311613   4.783   6.344   4.115 -0.3045  1.6874 -0.1489
 2960SOL    MW411614   4.815   6.347   4.034  0.4148 -0.0941  0.2402
 2961SOL     OW11615   6.221   1.503   1.767  0.0168 -0.9169  0.6977
 2961SOL    HW211616   6.145   1.447   1.783 -0.3887 -1.1886 -1.7601
 2961SOL    HW311617   6.184   1.589   1.747  0.4186 -0.8034  0.4257
 2961SOL    MW411618   6.206   1.507   1.767 -0.0750  0.2291 -0.4206
 2962SOL     OW11619   3.614   0.429   5.352  0.2468  0.3949  0.0396
 2962SOL    HW211620   3.578   0.345   5.323 -1.6572  1.3504 -0.5204
 2962SOL    HW311621   3.644   0.471   5.272 -0.5351  1.0225  0.0736
 2962SOL    MW411622   3.613   0.423   5.337 -0.0772 -0.2947  0.1634
 2963SOL     OW11623   2.317   0.908   3.003  0.9606 -0.6843 -0.7607
 2963SOL    HW211624   2.249   0.894   2.937  0.2482 -0.0678 -0.1772
 2963SOL    HW311625   2.270   0.908   3.086  2.0246 -3.0032 -0.0632
 2963SOL    MW411626   2.302   0.906   3.005  0.1822 -0.3485 -0.0095
 2964SOL     OW11627   3.211   4.406   1.334 -0.1435 -0.1076 -0.5614
 2964SOL    HW211628   3.163   4.326   1.357 -1.1010  0.8788  1.0381
 2964SOL    HW311629   3.263   4.381   1.257  0.1658 -2.4734  0.3136
 2964SOL    MW411630   3.212   4.392   1.327  0.4289 -0.1632 -0.1666
 2965SOL     OW11631   5.023   5.852   1.228 -0.5324 -0.8913 -0.2038
 2965SOL    HW211632   4.990   5.925   1.280  0.5985 -1.0174  0.7206
 2965SOL    HW311633   4.974   5.857   1.146 -1.8855 -0.2901  0.6031
 2965SOL    MW411634   5.012   5.862   1.224 -0.2042  0.3896 -0.6017
 2966SOL     OW11635   5.330   5.351   0.030 -0.6514 -0.4632 -0.1737
 2966SOL    HW211636   5.374   5.353  -0.055 -1.4511  1.1316 -0.5958
 2966SOL    HW311637   5.262   5.285   0.021 -1.7530  0.7592 -1.3579
 2966SOL    MW411638   5.327   5.343   0.018  0.0016 -0.9916  0.0365
 2967SOL     OW11639   2.729   2.383   2.543  0.4403  0.2262 -0.1624
 2967SOL    HW211640   2.794   2.319   2.514 -0.8853 -0.3407 -2.0803
 2967SOL    HW311641   2.763   2.416   2.626  3.8167  0.9558 -1.6779
 2967SOL    MW411642   2.742   2.379   2.550 -0.7333  0.1032 -0.0582
 2968SOL     OW11643   0.948   3.664   1.591  0.2476 -0.1136 -0.0071
 2968SOL    HW211644   0.882   3.637   1.654  1.0049  0.5479  1.1185
 2968SOL    HW311645   0.900   3.709   1.522 -0.5115  0.0226  0.6060
 2968SOL    MW411646   0.933   3.667   1.590 -0.4412 -0.0100 -0.6353
 2969SOL     OW11647   3.405   5.458   4.890  0.1515  0.1445  0.1001
 2969SOL    HW211648   3.314   5.459   4.920 -0.1094 -0.6552 -0.6357
 2969SOL    HW311649   3.448   5.526   4.942 -0.7706  0.2499  0.7452
 2969SOL    MW411650   3.399   5.467   4.901  0.0833 -0.3370 -0.5423
 2970SOL     OW11651   2.555   0.494   0.460 -0.3458  0.0248 -0.1599
 2970SOL    HW211652   2.460   0.502   0.447 -0.6045  0.5437  1.7150
 2970SOL    HW311653   2.577   0.409   0.423 -1.2726  0.4928 -1.8935
 2970SOL    MW411654   2.545   0.484   0.453 -0.2048 -0.6270 -0.0719
 2971SOL     OW11655   3.799   0.675   5.507 -0.1241 -1.0154  0.2717
 2971SOL    HW211656   3.725   0.628   5.468  0.0578 -0.9716 -0.1308
 2971SOL    HW311657   3.866   0.608   5.520  1.2863 -0.4510 -3.0647
 2971SOL    MW411658   3.798   0.660   5.504  0.2942  0.2699  0.0270
 2972SOL     OW11659   0.529   3.305   1.310  0.0724 -0.4114 -0.0994
 2972SOL    HW211660   0.543   3.212   1.297  0.3903 -0.4870  0.7280
 2972SOL    HW311661   0.441   3.311   1.348 -0.9916 -0.1676 -2.4603
 2972SOL    MW411662   0.519   3.294   1.313  0.0326 -0.8459 -0.3199
 2973SOL     OW11663   3.033   1.382   4.062 -0.3726 -1.0619 -1.0246
 2973SOL    HW211664   2.982   1.417   3.989 -0.8596  0.1180 -0.1480
 2973SOL    HW311665   2.968   1.341   4.119 -0.4069  0.5211  0.1406
 2973SOL    MW411666   3.018   1.381   4.060 -0.0882 -0.7373 -0.2858
 2974SOL     OW11667   2.760   0.892   2.900  0.1446  0.2387  0.2092
 2974SOL    HW211668   2.679   0.938   2.921 -0.0953 -0.7568  1.5947
 2974SOL    HW311669   2.829   0.946   2.939  0.0555  0.5251 -0.0281
 2974SOL    MW411670   2.759   0.905   2.908 -0.2355 -0.2014  0.0020
 2975SOL     OW11671   0.793   0.239   0.381  0.4143  0.3137  0.2386
 2975SOL    HW211672   0.770   0.307   0.318  0.9452  0.8411  0.6101
 2975SOL    HW311673   0.820   0.286   0.459  0.3750 -0.3316  0.6489
 2975SOL    MW411674   0.794   0.254   0.383 -0.5589 -0.1094 -0.5605
 2976SOL     OW11675   2.239   1.016   5.028  0.0229  0.3240  0.6883
 2976SOL    HW211676   2.241   1.041   5.121 -2.2212 -0.6608  1.0776
 2976SOL    HW311677   2.331   1.011   5.003  0.8070 -1.0721  3.3641
 2976SOL    MW411678   2.251   1.019   5.037  0.0746  0.2595  0.5808
 2977SOL     OW11679   4.510   4.894   3.451 -0.2012 -0.9099 -0.6600
 2977SOL    HW211680   4.561   4.816   3.472 -0.3677 -0.8269  0.1089
 2977SOL    HW311681   4.558   4.937   3.381  0.9293 -0.6969  0.2196
 2977SOL    MW411682   4.523   4.890   3.445 -0.1449  0.0670 -0.1218
 2978SOL     OW11683   0.185   1.673   1.398 -0.0906  0.1736 -0.0494
 2978SOL    HW211684   0.140   1.714   1.471 -0.1007  1.5159 -0.7711
 2978SOL    HW311685   0.242   1.607   1.438  0.0568  1.0283  1.1762
 2978SOL    MW411686   0.187   1.669   1.413 -0.2734  0.3418 -0.2177
 2979SOL     OW11687   3.286   3.251   2.303 -0.2583 -0.7035  0.1762
 2979SOL    HW211688   3.367   3.276   2.347  0.1625 -3.9572  1.5392
 2979SOL    HW311689   3.314   3.201   2.227 -0.9698 -1.7259  0.5704
 2979SOL    MW411690   3.300   3.248   2.299 -0.2155 -0.2591 -0.1322
 2980SOL     OW11691   4.345   4.687   5.204  0.2867  0.3845  0.1549
 2980SOL    HW211692   4.330   4.628   5.131 -1.4719  0.3022  0.5520
 2980SOL    HW311693   4.419   4.648   5.252 -1.2216 -1.8843  0.7722
 2980SOL    MW411694   4.353   4.674   5.201 -0.0760 -0.3938 -0.1152
 2981SOL     OW11695   3.436   5.188   0.495 -0.0850 -0.2778 -0.2583
 2981SOL    HW211696   3.368   5.252   0.473  0.4774  0.1162 -0.9048
 2981SOL    HW311697   3.517   5.229   0.467  0.3721 -0.9401  0.0754
 2981SOL    MW411698   3.437   5.202   0.488 -0.2625  0.1619 -0.1366
 2982SOL     OW11699   3.378   5.088   3.653  0.3875 -0.2030 -0.4147
 2982SOL    HW211700   3.370   5.021   3.720  0.5321  0.0963 -0.0940
 2982SOL    HW311701   3.446   5.147   3.686 -0.9283  1.0624  0.1332
 2982SOL    MW411702   3.386   5.087   3.666 -0.6117 -0.3671  0.4486
 2983SOL     OW11703   1.673   3.999   3.300 -0.3794 -0.6339  0.1022
 2983SOL    HW211704   1.636   4.035   3.219 -2.1195 -1.9608  0.2452
 2983SOL    HW311705   1.597   3.966   3.348  0.6561 -0.1936  2.1435
 2983SOL    MW411706   1.658   3.999   3.295 -0.2451 -0.1143 -0.0266
 2984SOL     OW11707   0.016   5.153   3.712  0.4234 -0.4230 -0.5328
 2984SOL    HW211708   0.088   5.107   3.670 -0.2940  0.6416 -3.1635
 2984SOL    HW311709  -0.063   5.115   3.673 -0.3414  0.1819  0.3663
 2984SOL    MW411710   0.015   5.142   3.702  0.3090 -0.0091  0.1951
 2985SOL     OW11711   5.913   1.144   2.136 -0.0872 -0.7500  0.1994
 2985SOL    HW211712   5.963   1.220   2.166  0.0437 -0.8250  0.1689
 2985SOL    HW311713   5.823   1.177   2.130 -0.1669 -0.8059  0.9541
 2985SOL    MW411714   5.908   1.159   2.139 -0.3357  0.1555 -0.5436
 2986SOL     OW11715   1.383   4.056   5.109  0.4898 -0.4895 -0.0899
 2986SOL    HW211716   1.455   4.004   5.144  0.8603 -0.0576 -0.1948
 2986SOL    HW311717   1.324   3.992   5.071  0.4419 -0.9079  0.6703
 2986SOL    MW411718   1.385   4.041   5.108 -0.1465  0.7267 -0.1979
 2987SOL     OW11719   5.884   1.926   0.884  0.3958  0.1526  0.1873
 2987SOL    HW211720   5.963   1.896   0.930  0.2312  0.3358  0.5942
 2987SOL    HW311721   5.814   1.920   0.950 -0.1602 -1.0775 -0.4745
 2987SOL    MW411722   5.885   1.921   0.899 -0.0738  0.0313  0.4087
 2988SOL     OW11723   5.841   5.406   2.383  0.1095  0.6889 -0.2622
 2988SOL    HW211724   5.802   5.319   2.395  1.6106  0.1046  0.6733
 2988SOL    HW311725   5.903   5.395   2.311 -1.0041  1.4778 -1.3828
 2988SOL    MW411726   5.844   5.393   2.375 -0.0700  0.1694 -0.5421
 2989SOL     OW11727   1.178   4.218   2.331  0.0159  0.0202  0.2006
 2989SOL    HW211728   1.108   4.277   2.358  0.1052  1.6048 -2.6383
 2989SOL    HW311729   1.258   4.257   2.365  0.3250  2.9296 -3.3359
 2989SOL    MW411730   1.179   4.231   2.339 -0.2149 -0.2179  1.1752
 2990SOL     OW11731   2.094   3.855   2.792 -0.1639  0.3961 -0.9553
 2990SOL    HW211732   2.109   3.822   2.881 -0.2051 -1.0487 -1.4678
 2990SOL    HW311733   2.001   3.877   2.789 -0.5236 -1.0975 -1.1255
 2990SOL    MW411734   2.084   3.854   2.804 -0.0998 -0.1142  0.4793
 2991SOL     OW11735   0.968   2.123   4.088  0.5254 -0.0833  0.7972
 2991SOL    HW211736   1.002   2.081   4.009  1.6189  3.1343 -0.6490
 2991SOL    HW311737   0.873   2.124   4.076  0.6123 -0.5051  0.0002
 2991SOL    MW411738   0.960   2.118   4.076  0.8856 -0.7565  0.1787
 2992SOL     OW11739   0.981   3.837   5.251 -0.3904  0.3488 -0.5813
 2992SOL    HW211740   0.962   3.895   5.177  0.8698 -0.3631 -1.5015
 2992SOL    HW311741   1.045   3.885   5.303  0.5712 -0.1357 -1.2853
 2992SOL    MW411742   0.987   3.851   5.248  0.3199  0.3307  0.4249
 2993SOL     OW11743   2.239   2.289   3.454  0.1255 -0.3293 -0.2790
 2993SOL    HW211744   2.325   2.325   3.433  0.5563  0.9374  3.0438
 2993SOL    HW311745   2.249   2.195   3.443  1.4888 -0.1059 -1.2101
 2993SOL    MW411746   2.251   2.282   3.450 -0.0847  0.4373 -0.0181
 2994SOL     OW11747   4.915   2.400   4.532 -0.0133  0.3003 -0.2725
 2994SOL    HW211748   4.942   2.313   4.502 -0.3082  0.6014 -1.4702
 2994SOL    HW311749   4.997   2.446   4.551  0.1228 -0.4477  1.0286
 2994SOL    MW411750   4.930   2.395   4.531  0.2430 -0.0352  0.3223
 2995SOL     OW11751   3.850   5.716   4.805 -0.0250 -0.1962  0.1306
 2995SOL    HW211752   3.833   5.762   4.887  1.9622 -0.8509  0.9702
 2995SOL    HW311753   3.932   5.668   4.821 -0.5791 -1.8357 -1.6112
 2995SOL    MW411754   3.859   5.715   4.818  0.1080 -0.2988 -0.0225
 2996SOL     OW11755   3.181   2.219   0.624 -0.0368 -0.0905 -0.3033
 2996SOL    HW211756   3.163   2.254   0.711 -0.9265 -1.9963  0.3502
 2996SOL    HW311757   3.097   2.223   0.578  0.1000 -0.3282 -0.5846
 2996SOL    MW411758   3.168   2.224   0.629 -0.1010 -0.1514  0.3187
 2997SOL     OW11759   0.322   5.946   2.248  0.0293 -0.7092 -0.1421
 2997SOL    HW211760   0.255   5.993   2.296 -0.3790 -0.3493 -1.0376
 2997SOL    HW311761   0.277   5.867   2.216 -0.2020 -0.1093 -1.3675
 2997SOL    MW411762   0.307   5.941   2.250 -0.1970 -0.4891 -0.2372
 2998SOL     OW11763   6.006   4.674   3.083 -0.2294 -0.1380 -0.5798
 2998SOL    HW211764   6.031   4.663   3.174 -1.9481  2.2507  0.2913
 2998SOL    HW311765   5.927   4.622   3.072 -2.1218  2.3135  0.4425
 2998SOL    MW411766   5.999   4.666   3.093 -0.0088  0.3221  0.0116
 2999SOL     OW11767   1.989   0.803   4.253 -0.2447  0.4023 -0.1532
 2999SOL    HW211768   2.007   0.762   4.338 -0.0407 -0.9477 -0.8301
 2999SOL    HW311769   2.056   0.871   4.245 -0.9091  1.2712  1.2152
 2999SOL    MW411770   2.000   0.807   4.263  0.0930  0.4687  0.2349
 3000SOL     OW11771   4.863   1.549   6.103 -0.0349  0.4345  0.3600
 3000SOL    HW211772   4.823   1.636   6.093  1.0720  1.0628  1.2085
 3000SOL    HW311773   4.953   1.567   6.130  0.1645 -0.9891  0.7157
 3000SOL    MW411774   4.870   1.563   6.105  0.4089 -0.0516 -0.2795
 3001SOL     OW11775   1.062   5.720   1.267 -0.5918  0.4933  0.1735
 3001SOL    HW211776   0.987   5.773   1.294 -1.6615 -1.0143  0.2832
 3001SOL    HW311777   1.136   5.755   1.316 -1.9714 -0.5030  3.1523
 3001SOL    MW411778   1.062   5.731   1.277  0.5710  0.0058 -0.2943
 3002SOL     OW11779   1.249   2.821   1.229 -0.3687  0.2790  0.1909
 3002SOL    HW211780   1.194   2.899   1.241  0.4657  0.6310  2.1797
 3002SOL    HW311781   1.207   2.754   1.282 -0.0739 -0.0838 -0.0310
 3002SOL    MW411782   1.236   2.822   1.237  0.4991  0.5332  0.9412
 3003SOL     OW11783   3.524   3.495   3.065 -0.0168 -0.4347  0.2400
 3003SOL    HW211784   3.540   3.514   3.157  0.0312 -2.3081  0.6498
 3003SOL    HW311785   3.445   3.441   3.065 -1.2435  1.2391 -1.0237
 3003SOL    MW411786   3.515   3.490   3.077  0.3852  0.4328  0.4219
 3004SOL     OW11787   2.273   5.086   0.880  0.7451  0.1365 -0.0201
 3004SOL    HW211788   2.226   5.069   0.799  1.0563  1.4394 -0.4961
 3004SOL    HW311789   2.205   5.111   0.943  0.6912  1.1244 -0.4557
 3004SOL    MW411790   2.258   5.087   0.878  0.3209  0.4688  0.3048
 3005SOL     OW11791   1.260   2.517   3.652 -0.2121 -0.2408 -0.9354
 3005SOL    HW211792   1.201   2.512   3.577  0.0042  3.0799 -1.4753
 3005SOL    HW311793   1.344   2.484   3.619 -0.6505 -0.8478 -1.4753
 3005SOL    MW411794   1.264   2.512   3.638  0.4498 -0.5366 -0.0520
 3006SOL     OW11795   5.326   5.104   1.673 -0.3720  0.3552  0.3248
 3006SOL    HW211796   5.322   5.167   1.602 -2.0050  0.0512  0.1083
 3006SOL    HW311797   5.375   5.148   1.742 -0.0979  1.2324 -0.4135
 3006SOL    MW411798   5.332   5.118   1.673  0.1397 -0.0804  0.6683
 3007SOL     OW11799   3.254   1.755   5.970 -0.2200  0.6216  0.4799
 3007SOL    HW211800   3.179   1.736   6.027 -0.6900  1.2626  0.0947
 3007SOL    HW311801   3.229   1.720   5.885 -0.5344  1.7345  0.0961
 3007SOL    MW411802   3.241   1.748   5.966 -0.3295  0.1615  0.2354
 3008SOL     OW11803   2.436   2.421   2.077 -0.1114 -0.0825  0.5522
 3008SOL    HW211804   2.499   2.481   2.037 -1.8145  0.1731 -1.9174
 3008SOL    HW311805   2.450   2.338   2.032 -1.3153 -0.1028  0.1877
 3008SOL    MW411806   2.446   2.418   2.066 -0.8389 -0.2450  0.3287
 3009SOL     OW11807   6.368   2.167   1.576 -0.3427 -0.2530  0.0145
 3009SOL    HW211808   6.394   2.216   1.653 -0.2192  0.7439 -0.6440
 3009SOL    HW311809   6.273   2.177   1.570 -0.5931 -1.7429  0.9650
 3009SOL    MW411810   6.359   2.175   1.585  0.3614  0.2865  0.4530
 3010SOL     OW11811   0.747   4.593   0.414  0.0636  0.3303 -0.3301
 3010SOL    HW211812   0.723   4.547   0.494  2.4583 -1.4831 -0.5424
 3010SOL    HW311813   0.778   4.524   0.355  0.1094  1.8242 -2.1557
 3010SOL    MW411814   0.748   4.577   0.417  0.6266 -0.2717  0.2413
 3011SOL     OW11815   5.863   3.584   3.403  0.1049  0.1547  0.1385
 3011SOL    HW211816   5.832   3.618   3.319  0.6667 -0.2000 -0.2198
 3011SOL    HW311817   5.893   3.662   3.450 -0.2968  0.3665  0.0472
 3011SOL    MW411818   5.863   3.599   3.398  0.3435  0.0042 -0.6055
 3012SOL     OW11819   3.963   2.249   2.004 -0.4032 -0.7921 -0.5858
 3012SOL    HW211820   3.988   2.332   1.963 -0.1974 -0.8272 -0.5325
 3012SOL    HW311821   3.868   2.256   2.017 -0.5382 -0.9249 -1.4108
 3012SOL    MW411822   3.954   2.261   2.000 -0.2773 -0.7153  0.5160
 3013SOL     OW11823   6.225   3.924   3.538 -0.7139 -0.9727  0.0727
 3013SOL    HW211824   6.261   3.950   3.453 -0.5620 -1.5086 -0.0258
 3013SOL    HW311825   6.130   3.926   3.526 -0.8549  2.0149  0.7713
 3013SOL    MW411826   6.217   3.928   3.526  0.6826  0.0958  0.6475
 3014SOL     OW11827   6.253   1.063   4.141  0.1180 -0.2675 -0.2210
 3014SOL    HW211828   6.203   1.122   4.197  0.6982  1.5929 -1.5752
 3014SOL    HW311829   6.251   0.979   4.188 -1.5043  0.5547  1.3232
 3014SOL    MW411830   6.247   1.060   4.155 -0.0026  0.0252  0.4977
 3015SOL     OW11831   5.417   1.318   2.908  0.2412  0.0949 -0.0566
 3015SOL    HW211832   5.435   1.239   2.857  1.5665 -0.2913  0.9367
 3015SOL    HW311833   5.504   1.348   2.935 -0.4165 -0.6879  3.3668
 3015SOL    MW411834   5.431   1.311   2.905 -0.3231  0.6519 -0.4142
 3016SOL     OW11835   6.015   3.319   3.069 -0.1135 -0.0348  0.0177
 3016SOL    HW211836   6.068   3.386   3.113 -2.2208  1.1721  0.8754
 3016SOL    HW311837   5.979   3.266   3.140 -0.6973 -0.3165 -0.4727
 3016SOL    MW411838   6.017   3.321   3.084 -0.2375 -0.4707  0.7565
 3017SOL     OW11839   3.907   3.273   4.121  0.4891 -0.3696 -0.3676
 3017SOL    HW211840   3.928   3.181   4.104 -0.2800 -0.5040 -0.6285
 3017SOL    HW311841   3.965   3.298   4.192  1.3518 -0.7960 -0.8987
 3017SOL    MW411842   3.917   3.264   4.128  0.7008  0.2978  0.1699
 3018SOL     OW11843   2.402   0.241   4.305 -0.3502  0.2367  0.4227
 3018SOL    HW211844   2.396   0.210   4.214  2.5636  0.8885 -0.0852
 3018SOL    HW311845   2.362   0.170   4.356  0.2202 -1.3345 -1.1889
 3018SOL    MW411846   2.396   0.227   4.300  0.0548  0.5236  0.5371
 3019SOL     OW11847   4.124   2.238   4.895 -0.5067 -0.5156  0.1262
 3019SOL    HW211848   4.117   2.289   4.975  0.6963  1.4083 -0.9343
 3019SOL    HW311849   4.215   2.248   4.867 -0.9091 -1.0757 -1.5095
 3019SOL    MW411850   4.135   2.246   4.902 -0.2863  0.0303  0.1979
 3020SOL     OW11851   0.496   0.856   1.342 -0.2667  0.4519 -0.2979
 3020SOL    HW211852   0.529   0.815   1.262  1.8691  2.9432 -0.8349
 3020SOL    HW311853   0.551   0.822   1.412 -1.5878 -1.0769  0.0699
 3020SOL    MW411854   0.507   0.846   1.341  0.0252 -0.3329  0.0774
 3021SOL     OW11855   1.635   4.452   1.379 -0.4114  0.3225  0.5593
 3021SOL    HW211856   1.590   4.502   1.447 -1.5458 -0.1639  0.1782
 3021SOL    HW311857   1.692   4.517   1.335 -0.2138  0.7868  1.4846
 3021SOL    MW411858   1.637   4.467   1.382 -0.2916 -0.1390  0.1588
 3022SOL     OW11859   3.225   1.379   2.431  0.0689 -0.1647 -0.3752
 3022SOL    HW211860   3.247   1.302   2.378  0.6928 -1.0980  1.1720
 3022SOL    HW311861   3.302   1.435   2.423  1.1217 -1.2903  1.2165
 3022SOL    MW411862   3.238   1.376   2.423  0.1538 -0.5189  0.3106
 3023SOL     OW11863   4.089   0.527   5.295 -0.0715  0.1259 -0.0358
 3023SOL    HW211864   4.173   0.554   5.257  0.5827  1.2835  2.0936
 3023SOL    HW311865   4.028   0.595   5.268  0.2034  0.4989  0.2601
 3023SOL    MW411866   4.092   0.540   5.286  0.0466 -0.5524  0.5340
 3024SOL     OW11867   6.267   1.504   1.083 -0.2913 -0.5466  0.2067
 3024SOL    HW211868   6.307   1.515   1.170  1.1676 -0.1714 -0.4801
 3024SOL    HW311869   6.300   1.420   1.052 -1.0857 -0.8446  0.1399
 3024SOL    MW411870   6.277   1.494   1.091 -0.3292  0.7654 -0.1768
 3025SOL     OW11871   0.558   5.598   3.298 -0.0436 -0.4605 -0.0310
 3025SOL    HW211872   0.583   5.550   3.377 -1.1255 -0.5716  0.2583
 3025SOL    HW311873   0.632   5.657   3.282  0.5523 -1.0229  0.5782
 3025SOL    MW411874   0.571   5.600   3.306  0.0523 -0.4240  0.1887
 3026SOL     OW11875   0.268   5.709   1.940  0.7255 -0.0304  0.0443
 3026SOL    HW211876   0.321   5.630   1.949  1.0193  0.3397  1.8265
 3026SOL    HW311877   0.215   5.712   2.019  1.3585  1.9997  0.4571
 3026SOL    MW411878   0.268   5.699   1.951 -0.2246 -0.3330 -0.1528
 3027SOL     OW11879   2.291   2.889   1.312  0.3824 -0.2494  0.3541
 3027SOL    HW211880   2.273   2.796   1.329 -3.0828  0.2624  0.2494
 3027SOL    HW311881   2.263   2.903   1.222 -0.6230  1.1524  0.8400
 3027SOL    MW411882   2.285   2.878   1.303  0.2395 -0.0982  0.0903
 3028SOL     OW11883   2.105   5.957   3.763  0.2877 -0.2663  0.3540
 3028SOL    HW211884   2.174   5.919   3.817  0.6603  0.3398  0.3177
 3028SOL    HW311885   2.039   5.889   3.757 -0.0868 -0.1075  2.1591
 3028SOL    MW411886   2.106   5.943   3.769 -0.1711  0.2138  1.5063
 3029SOL     OW11887   4.108   3.465   1.338 -0.2416 -0.2206  0.5020
 3029SOL    HW211888   4.131   3.554   1.310  1.2116 -0.1602  1.7436
 3029SOL    HW311889   4.189   3.430   1.374 -1.6508 -0.6830  3.5222
 3029SOL    MW411890   4.122   3.472   1.339 -0.0034  0.2152 -0.1346
 3030SOL     OW11891   4.016   4.559   1.424  0.0747  0.3002  0.1488
 3030SOL    HW211892   4.014   4.583   1.332 -0.2333  0.6189  0.2360
 3030SOL    HW311893   3.943   4.607   1.463  1.4675  1.8379  0.9588
 3030SOL    MW411894   4.006   4.568   1.417  0.2473  0.2220  0.0152
 3031SOL     OW11895   5.363   0.951   5.408  0.2329 -0.0213 -0.2346
 3031SOL    HW211896   5.350   0.860   5.433  0.5865  0.4619  1.9008
 3031SOL    HW311897   5.319   0.960   5.323 -2.2271 -1.5090  0.7870
 3031SOL    MW411898   5.355   0.940   5.400  0.1588  0.3034  0.3293
 3032SOL     OW11899   0.207   1.050   3.905  0.6101 -0.2150  0.3640
 3032SOL    HW211900   0.236   1.047   3.814  2.7019  0.5300  0.9483
 3032SOL    HW311901   0.288   1.050   3.956 -0.3889  2.0175  2.1448
 3032SOL    MW411902   0.222   1.050   3.899 -0.0831  0.5166  0.1691
 3033SOL     OW11903   5.770   6.061   0.178 -0.0447 -0.0764  0.4807
 3033SOL    HW211904   5.853   6.027   0.212 -0.0013 -0.7006 -0.2300
 3033SOL    HW311905   5.794   6.118   0.106 -0.2658 -1.0028 -0.3451
 3033SOL    MW411906   5.784   6.064   0.173 -0.5972  0.0337 -0.1080
 3034SOL     OW11907   1.676   3.603   5.102  0.2205 -0.4444  0.3044
 3034SOL    HW211908   1.666   3.536   5.033 -1.9287  0.1019 -0.0030
 3034SOL    HW311909   1.632   3.680   5.066 -0.4548  0.0283  2.0680
 3034SOL    MW411910   1.669   3.604   5.088  0.1663 -0.1151 -0.1651
 3035SOL     OW11911   3.972   6.218   6.086 -0.9354  0.0436 -0.2034
 3035SOL    HW211912   3.981   6.173   6.170 -0.8149  0.0347 -0.2208
 3035SOL    HW311913   3.883   6.196   6.057 -1.0293  0.1635 -0.0108
 3035SOL    MW411914   3.961   6.209   6.094  0.3990  0.0268 -0.1311
 3036SOL     OW11915   2.723   0.349   5.001 -0.1806 -0.5012  0.1909
 3036SOL    HW211916   2.646   0.402   4.983  0.7181  0.7505 -0.1237
 3036SOL    HW311917   2.743   0.306   4.919  0.3156  0.3557 -0.1489
 3036SOL    MW411918   2.716   0.351   4.988 -0.2403 -0.1506 -0.4681
 3037SOL     OW11919   0.827   2.003   3.686  0.3650  0.1034  0.1781
 3037SOL    HW211920   0.896   1.992   3.751  1.7930  1.5869 -0.9768
 3037SOL    HW311921   0.756   1.948   3.716  1.7509 -0.8551  1.8699
 3037SOL    MW411922   0.827   1.995   3.698 -0.3282  0.0684 -0.0599
 3038SOL     OW11923   0.192   4.681   0.521 -0.1868 -0.3275 -0.0663
 3038SOL    HW211924   0.193   4.645   0.609  1.9960  0.0852  0.1259
 3038SOL    HW311925   0.278   4.722   0.510 -0.6159  0.1518 -2.1760
 3038SOL    MW411926   0.203   4.682   0.531  0.3169 -0.1152 -0.1785
 3039SOL     OW11927   4.991   6.138   4.043 -0.3270 -0.2157  0.9196
 3039SOL    HW211928   4.926   6.206   4.023 -0.3661 -0.5463 -0.1608
 3039SOL    HW311929   4.970   6.067   3.984 -0.3657 -1.2449  2.1384
 3039SOL    MW411930   4.980   6.138   4.033  0.0026  0.6470 -0.1823
 3040SOL     OW11931   4.187   3.174   6.329 -0.1447 -0.7207 -0.4826
 3040SOL    HW211932   4.231   3.210   6.252 -0.9842 -1.4981 -1.3343
 3040SOL    HW311933   4.206   3.080   6.326 -1.4826 -0.9973 -0.6136
 3040SOL    MW411934   4.196   3.166   6.318  0.0152  0.1664 -0.1728
 3041SOL     OW11935   2.620   2.132   5.895 -0.4435 -0.0436 -0.2755
 3041SOL    HW211936   2.636   2.212   5.845 -1.7335  0.0243 -0.5994
 3041SOL    HW311937   2.574   2.162   5.974 -0.0159 -0.3545  0.0960
 3041SOL    MW411938   2.616   2.146   5.899 -0.3520 -0.8912  0.0894
 3042SOL     OW11939   2.633   5.613   1.985  0.0855  0.5595 -0.0027
 3042SOL    HW211940   2.718   5.639   2.021  0.3025  1.0132 -0.8267
 3042SOL    HW311941   2.586   5.695   1.970 -0.3357  0.3347  0.0417
 3042SOL    MW411942   2.638   5.627   1.988 -0.2638 -0.0169 -0.2605
 3043SOL     OW11943   4.181   2.017   6.393 -0.5140  0.5955  0.1073
 3043SOL    HW211944   4.231   2.085   6.438  0.8165 -0.2708  0.0191
 3043SOL    HW311945   4.117   2.064   6.340 -1.3832  1.6659  2.0391
 3043SOL    MW411946   4.179   2.032   6.392 -0.5911  0.6413 -0.0745
 3044SOL     OW11947   3.146   0.583   0.666  0.2457 -0.1844  0.0384
 3044SOL    HW211948   3.205   0.520   0.708 -0.2091 -1.6179 -1.4119
 3044SOL    HW311949   3.066   0.580   0.719 -0.2328 -1.7990 -0.7158
 3044SOL    MW411950   3.143   0.574   0.679  0.1861  0.3744  0.1086
 3045SOL     OW11951   0.211   5.881   2.935 -0.0157 -0.5482  0.3384
 3045SOL    HW211952   0.119   5.853   2.933  0.2480 -1.5600  1.5018
 3045SOL    HW311953   0.231   5.891   3.028  1.0599 -0.3498  0.0945
 3045SOL    MW411954   0.201   5.878   2.947 -0.1319 -0.7246 -0.4192
 3046SOL     OW11955   3.332   2.998   4.968 -0.0452  0.5169  0.1335
 3046SOL    HW211956   3.292   2.972   4.885 -0.4423 -0.3142  0.5653
 3046SOL    HW311957   3.318   3.092   4.974  0.0830  0.6024 -0.7893
 3046SOL    MW411958   3.325   3.007   4.958 -0.1810 -0.2466 -0.3758
 3047SOL     OW11959   3.024   1.151   6.119 -0.0341  0.2081 -0.2550
 3047SOL    HW211960   3.008   1.124   6.210  0.2288 -1.0639 -0.5604
 3047SOL    HW311961   3.021   1.069   6.070  3.0637  0.3908 -0.9527
 3047SOL    MW411962   3.022   1.136   6.125 -0.2204  0.2915 -0.0211
 3048SOL     OW11963   5.698   1.706   2.001 -0.1856 -0.4960 -0.9637
 3048SOL    HW211964   5.770   1.649   1.975  0.8537 -0.7696  2.1044
 3048SOL    HW311965   5.739   1.792   2.016 -0.4596 -0.6101  0.6490
 3048SOL    MW411966   5.713   1.710   2.000  0.2510  0.1092 -0.1529
 3049SOL     OW11967   2.949   2.235   2.445 -0.1429  0.2479 -0.3816
 3049SOL    HW211968   3.030   2.209   2.487 -0.3570 -0.3809 -0.3474
 3049SOL    HW311969   2.977   2.284   2.367  0.2499  1.3360  0.4248
 3049SOL    MW411970   2.963   2.238   2.440  0.5073  0.4864 -0.0942
 3050SOL     OW11971   2.288   4.963   2.191  0.6421 -0.2824  0.3881
 3050SOL    HW211972   2.376   4.956   2.229  1.3455  1.8025 -0.6778
 3050SOL    HW311973   2.303   4.953   2.097 -0.3980 -0.7094  0.2628
 3050SOL    MW411974   2.302   4.961   2.183  0.3680 -0.3823 -0.1895
 3051SOL     OW11975   2.717   4.875   0.070 -0.2290 -0.6522  0.2172
 3051SOL    HW211976   2.641   4.857   0.124 -0.8150 -0.4766 -0.5270
 3051SOL    HW311977   2.683   4.929  -0.002  0.2657 -1.9066 -1.0126
 3051SOL    MW411978   2.702   4.880   0.068  0.0593 -0.0404 -0.0041
 3052SOL     OW11979   5.053   4.682   1.246 -0.1031 -0.0362 -0.0829
 3052SOL    HW211980   4.983   4.640   1.295 -0.8074  2.1843  0.9506
 3052SOL    HW311981   5.009   4.741   1.184  0.8149  0.5846 -0.1822
 3052SOL    MW411982   5.038   4.684   1.244  0.4224  0.0278 -0.4409
 3053SOL     OW11983   1.923   4.050   0.870 -0.0313 -0.3911  0.2990
 3053SOL    HW211984   1.844   4.087   0.909 -0.9501 -0.0982 -1.7253
 3053SOL    HW311985   1.967   4.125   0.831  2.3220 -0.2092  2.9981
 3053SOL    MW411986   1.918   4.065   0.870 -0.1158 -0.2287  0.5692
 3054SOL     OW11987   2.295   5.149   2.611 -0.2991  0.2940  0.1975
 3054SOL    HW211988   2.375   5.124   2.658  1.3634  1.5480 -1.7548
 3054SOL    HW311989   2.233   5.174   2.679  0.6003 -1.6230  1.8268
 3054SOL    MW411990   2.297   5.149   2.626 -0.1221  0.1566 -0.6746
 3055SOL     OW11991   4.088   5.381   6.309  0.0230  0.4664  0.5054
 3055SOL    HW211992   4.150   5.318   6.273  0.9278  1.9321 -0.6322
 3055SOL    HW311993   4.097   5.373   6.404  3.6558  2.1120  0.4752
 3055SOL    MW411994   4.097   5.372   6.317 -0.3067 -0.1985 -0.7610
 3056SOL     OW11995   4.759   4.054   5.844  0.3364 -0.0716 -0.0487
 3056SOL    HW211996   4.790   4.015   5.762 -0.0619  3.6623 -2.1918
 3056SOL    HW311997   4.664   4.061   5.833  0.4910  2.5706 -0.4488
 3056SOL    MW411998   4.751   4.050   5.831  0.3579 -0.4995 -0.0772
 3057SOL     OW11999   3.372   2.146   1.991  0.0131  0.6184 -0.5109
 3057SOL    HW212000   3.357   2.054   1.966  1.1001  0.9435 -2.6556
 3057SOL    HW312001   3.411   2.185   1.912  3.1022  1.9956  1.5059
 3057SOL    MW412002   3.375   2.139   1.977  0.4047  0.9002  0.2085
 3058SOL     OW12003   3.107   0.906   1.945 -0.0287  0.0141  0.1790
 3058SOL    HW212004   3.012   0.918   1.950 -0.4170 -1.8445 -1.3133
 3058SOL    HW312005   3.123   0.884   1.853  1.7318 -0.5344  0.5801
 3058SOL    MW412006   3.096   0.904   1.933 -0.3701  0.1020 -0.7798
 3059SOL     OW12007   5.441   0.798   1.555  0.1484  0.0593 -0.5899
 3059SOL    HW212008   5.482   0.827   1.636 -0.9381  0.3275 -0.1226
 3059SOL    HW312009   5.399   0.877   1.520  0.9733  0.0546 -1.6511
 3059SOL    MW412010   5.441   0.812   1.561  0.0448  0.0524 -0.7672
 3060SOL     OW12011   6.409   4.157   4.665 -0.0455  0.0269 -0.1592
 3060SOL    HW212012   6.492   4.199   4.646 -0.0206  0.2380  0.4067
 3060SOL    HW312013   6.343   4.222   4.640 -0.1142 -0.7454 -2.1684
 3060SOL    MW412014   6.411   4.171   4.659 -0.3458 -0.4250 -0.1679
 3061SOL     OW12015   2.698   1.661   5.670 -0.4982  0.1306  0.2998
 3061SOL    HW212016   2.741   1.676   5.754 -0.9958  1.0317  0.3974
 3061SOL    HW312017   2.767   1.676   5.605 -0.1194 -0.5417  0.5287
 3061SOL    MW412018   2.713   1.665   5.673 -0.1147 -0.0404  0.8382
 3062SOL     OW12019   4.772   3.239   0.171  0.1051 -0.2557 -0.3116
 3062SOL    HW212020   4.766   3.249   0.266  0.8674  1.9468 -0.4568
 3062SOL    HW312021   4.686   3.204   0.145 -0.5632  0.3373  1.0352
 3062SOL    MW412022   4.760   3.235   0.180 -0.0760 -0.2277 -0.5225
 3063SOL     OW12023   6.095   2.615   0.627 -0.4807  0.0918 -0.0741
 3063SOL    HW212024   6.010   2.591   0.588 -0.1744  0.1206 -0.7715
 3063SOL    HW312025   6.075   2.631   0.719 -0.9148 -1.7051  0.1835
 3063SOL    MW412026   6.081   2.614   0.634 -0.7775  0.2907 -0.4864
 3064SOL     OW12027   0.045   0.429   3.157 -0.0311 -0.0655 -0.2479
 3064SOL    HW212028  -0.045   0.422   3.126 -0.7101  1.9992  1.0609
 3064SOL    HW312029   0.054   0.359   3.221 -0.5407 -0.5688 -0.7128
 3064SOL    MW412030   0.035   0.419   3.161  0.5351 -0.0940 -0.0833
 3065SOL     OW12031   1.705   1.668   0.726  0.2577  0.4645 -0.0893
 3065SOL    HW212032   1.674   1.717   0.650  0.2339  0.9938  0.2600
 3065SOL    HW312033   1.793   1.639   0.702 -0.0141  0.0220 -0.5906
 3065SOL    MW412034   1.712   1.670   0.713 -0.3745  0.2468  0.0327
 3066SOL     OW12035   1.609   0.611   4.918 -0.4014  0.2101 -0.0551
 3066SOL    HW212036   1.562   0.528   4.912 -0.6279  0.3705 -0.6097
 3066SOL    HW312037   1.698   0.591   4.890  0.0002 -0.1853  1.4117
 3066SOL    MW412038   1.614   0.598   4.914  0.2454  0.9267 -0.3419
 3067SOL     OW12039   0.829   5.122   1.986  0.0795  0.4107 -1.2185
 3067SOL    HW212040   0.904   5.111   1.928  0.2540 -0.0187 -0.9184
 3067SOL    HW312041   0.858   5.085   2.070 -0.4850  0.1690 -1.1238
 3067SOL    MW412042   0.843   5.115   1.989  0.3443  0.0556  0.4042
 3068SOL     OW12043   0.164   2.080   5.376 -0.2408  0.0353  1.0923
 3068SOL    HW212044   0.222   2.004   5.375  0.3150  0.4029 -1.5599
 3068SOL    HW312045   0.087   2.053   5.326 -1.1422  0.4828  2.1767
 3068SOL    MW412046   0.161   2.066   5.370  0.2791  0.3110 -0.7117
 3069SOL     OW12047   3.477   1.845   6.305 -0.1418 -0.0363 -0.8384
 3069SOL    HW212048   3.428   1.924   6.324  0.0243 -0.1159 -0.0672
 3069SOL    HW312049   3.495   1.850   6.211 -0.4335  0.6633 -0.8584
 3069SOL    MW412050   3.473   1.856   6.295  0.3060  0.2056  0.2759
 3070SOL     OW12051   1.253   2.831   2.249 -0.3728  0.0507 -0.6703
 3070SOL    HW212052   1.349   2.827   2.248 -0.3248  0.9215 -0.2857
 3070SOL    HW312053   1.228   2.822   2.157  0.1618  1.4506 -0.9690
 3070SOL    MW412054   1.263   2.829   2.237 -0.3526 -0.1793 -0.5612
 3071SOL     OW12055   3.846   2.239   0.350 -0.4611 -0.6903 -0.5357
 3071SOL    HW212056   3.822   2.294   0.424  0.3155 -1.5386  0.3728
 3071SOL    HW312057   3.905   2.293   0.297  1.0044 -0.9159  0.8076
 3071SOL    MW412058   3.851   2.253   0.353  0.0227 -0.1386  0.2828
 3072SOL     OW12059   3.367   4.334   3.680 -0.2669  0.6838 -0.1701
 3072SOL    HW212060   3.441   4.286   3.643 -0.9683 -0.6787  0.1030
 3072SOL    HW312061   3.406   4.399   3.738  0.7389  0.7547 -0.9170
 3072SOL    MW412062   3.382   4.336   3.683 -0.4594  0.3774 -0.0451
 3073SOL     OW12063   3.169   0.940   4.091  0.1090 -0.0098 -0.0545
 3073SOL    HW212064   3.136   0.930   4.002 -0.3601  4.6602 -0.6886
 3073SOL    HW312065   3.254   0.982   4.080  1.4798 -2.1271  1.7568
 3073SOL    MW412066   3.176   0.944   4.078  0.7311  0.0963 -0.3844
 3074SOL     OW12067   0.928   1.637   4.937 -0.2203 -0.7775  0.6318
 3074SOL    HW212068   0.878   1.558   4.916 -0.8327 -0.2359  0.0110
 3074SOL    HW312069   0.892   1.705   4.880 -0.4819  0.2383  1.9530
 3074SOL    MW412070   0.917   1.635   4.926  0.3395  0.1634 -0.0895
 3075SOL     OW12071   3.905   0.296   3.830 -0.1471  0.1825 -0.2629
 3075SOL    HW212072   3.918   0.207   3.798 -1.7325 -0.2534  0.2157
 3075SOL    HW312073   3.816   0.318   3.802  0.0672  1.4521  0.0214
 3075SOL    MW412074   3.895   0.287   3.822 -0.3050 -0.3100 -0.1428
 3076SOL     OW12075   2.524   2.951   1.592 -0.1376  0.2748  0.2314
 3076SOL    HW212076   2.509   2.954   1.498 -1.1079  2.2492  0.3984
 3076SOL    HW312077   2.609   2.908   1.601 -0.1971 -0.2920 -1.5008
 3076SOL    MW412078   2.533   2.946   1.581 -0.2334  0.3805  0.4412
 3077SOL     OW12079   1.249   0.199   1.420  0.5868  0.1165  0.2273
 3077SOL    HW212080   1.309   0.268   1.393  0.2633  0.1037 -0.5650
 3077SOL    HW312081   1.193   0.239   1.486  0.7065  0.4747  0.1099
 3077SOL    MW412082   1.250   0.213   1.425 -0.3320  0.6014 -0.0163
 3078SOL     OW12083   4.478   1.363   2.051  0.7267 -0.0182 -0.4651
 3078SOL    HW212084   4.401   1.383   2.103  1.6053 -2.0377  1.7993
 3078SOL    HW312085   4.551   1.403   2.099  1.2646  0.6980 -1.8226
 3078SOL    MW412086   4.478   1.371   2.064 -0.6799 -0.2303  0.4369
 3079SOL     OW12087   4.378   5.345   5.178  0.7288 -0.5423  0.1932
 3079SOL    HW212088   4.432   5.316   5.251 -0.7669 -1.6943  0.9049
 3079SOL    HW312089   4.434   5.336   5.101  1.3799 -2.2217  0.8240
 3079SOL    MW412090   4.392   5.340   5.177  0.8797 -0.0771  0.7694
 3080SOL     OW12091   0.535   1.821   1.209  0.4539 -0.0181  0.2731
 3080SOL    HW212092   0.525   1.832   1.114 -1.2672  0.9182  0.5253
 3080SOL    HW312093   0.598   1.888   1.234 -0.7540  1.2425  0.0618
 3080SOL    MW412094   0.542   1.831   1.200  0.5598 -0.4646  0.0950
 3081SOL     OW12095   4.327   5.980   1.403 -0.1365  0.0553  0.2493
 3081SOL    HW212096   4.347   6.067   1.437  1.0831 -0.1309  0.0471
 3081SOL    HW312097   4.252   5.951   1.455  0.3749  0.6293  1.3299
 3081SOL    MW412098   4.320   5.988   1.414 -0.0371  0.0691 -0.7525
 3082SOL     OW12099   1.576   5.589   1.933 -0.1852  0.3953  0.8496
 3082SOL    HW212100   1.485   5.588   1.963 -0.9680  1.7837 -1.2796
 3082SOL    HW312101   1.570   5.571   1.839  1.8255 -0.1428  0.7916
 3082SOL    MW412102   1.563   5.586   1.925 -0.0689  0.2000 -0.1261
 3083SOL     OW12103   2.986   1.031   5.389  0.1562 -0.7440  0.0460
 3083SOL    HW212104   2.895   1.006   5.404  0.0869 -0.5717 -0.0828
 3083SOL    HW312105   3.015   1.067   5.473 -0.6362  1.4664 -0.5604
 3083SOL    MW412106   2.978   1.033   5.402 -0.5145  0.1741 -0.8497
 3084SOL     OW12107   2.624   3.422   3.741 -0.4043  0.2705  0.3676
 3084SOL    HW212108   2.657   3.334   3.723  2.0309  0.9638  1.1469
 3084SOL    HW312109   2.701   3.473   3.766 -1.5963  2.8608 -0.8166
 3084SOL    MW412110   2.638   3.417   3.742  0.0690 -0.4405  0.0818
 3085SOL     OW12111   2.023   5.901   1.682 -0.3202  0.1765 -0.4507
 3085SOL    HW212112   1.985   5.846   1.750  1.1817  0.8097  0.9574
 3085SOL    HW312113   1.993   5.989   1.703  0.2327  0.3922 -0.5600
 3085SOL    MW412114   2.014   5.905   1.694  0.4550 -0.3659 -0.4854
 3086SOL     OW12115   3.413   0.109   0.025  0.0684  0.2840  0.0635
 3086SOL    HW212116   3.433   0.123   0.117  0.1033 -0.1072  0.1195
 3086SOL    HW312117   3.464   0.175  -0.022 -0.6971  1.1218  0.3833
 3086SOL    MW412118   3.422   0.120   0.031  0.2766  0.2951 -0.4464
 3087SOL     OW12119   5.637   2.643   2.042  0.3738 -0.1947 -0.6461
 3087SOL    HW212120   5.637   2.547   2.038  0.5712 -0.1502 -1.9741
 3087SOL    HW312121   5.724   2.669   2.012  0.4976  0.4003  0.1894
 3087SOL    MW412122   5.648   2.633   2.038  0.4776  0.5239  0.5494
 3088SOL     OW12123   5.194   1.793   0.680  0.0564 -0.0141  0.1868
 3088SOL    HW212124   5.238   1.733   0.740  0.0426  0.2687  0.4790
 3088SOL    HW312125   5.266   1.836   0.633  0.1068  0.5619  0.7740
 3088SOL    MW412126   5.209   1.791   0.682 -0.2982 -0.7192 -0.3102
 3089SOL     OW12127   3.526   2.630   4.427  0.2558 -0.0151  0.0143
 3089SOL    HW212128   3.612   2.590   4.419  0.3968 -0.2468  2.0573
 3089SOL    HW312129   3.468   2.571   4.379  0.7393 -1.7767  1.4772
 3089SOL    MW412130   3.529   2.617   4.420 -0.5094 -0.4068  0.5570
 3090SOL     OW12131   0.982   3.317   3.133 -0.1486  0.5046 -0.6528
 3090SOL    HW212132   0.929   3.397   3.129 -1.1972 -0.1812 -0.7383
 3090SOL    HW312133   1.029   3.324   3.217  1.5518  2.2786 -1.6742
 3090SOL    MW412134   0.981   3.329   3.144 -0.0750  0.1817 -0.1318
 3091SOL     OW12135   1.854   0.243   4.610  0.0133  0.1069 -0.0089
 3091SOL    HW212136   1.891   0.328   4.633 -1.5120  0.8869 -0.3198
 3091SOL    HW312137   1.760   0.253   4.623 -0.3920 -0.9855 -1.7047
 3091SOL    MW412138   1.847   0.256   4.615  0.1578 -0.3513  0.6161
 3092SOL     OW12139   3.012   2.749   2.052  0.4228  0.1865 -0.3817
 3092SOL    HW212140   3.013   2.844   2.062  0.6557  0.0965  0.5427
 3092SOL    HW312141   2.994   2.716   2.140  1.1937 -0.6457 -0.5193
 3092SOL    MW412142   3.010   2.757   2.065 -0.1360  0.2235  0.3754
 3093SOL     OW12143   3.441   4.623   3.390  0.1166  0.2211  0.1042
 3093SOL    HW212144   3.463   4.532   3.368  1.1629  0.5664 -0.3485
 3093SOL    HW312145   3.472   4.674   3.315 -1.8271  0.8291 -0.3647
 3093SOL    MW412146   3.448   4.618   3.377 -0.0022 -0.1107  0.2052
 3094SOL     OW12147   3.452   3.556   0.880 -0.4266 -0.0689  0.3597
 3094SOL    HW212148   3.513   3.538   0.809  1.3667  1.2974  1.4530
 3094SOL    HW312149   3.371   3.512   0.854  0.3105 -0.0655 -2.2373
 3094SOL    MW412150   3.450   3.548   0.867  0.1558  0.1731 -0.2063
 3095SOL     OW12151   5.479   0.525   1.497  0.0159 -0.8852  0.1481
 3095SOL    HW212152   5.462   0.617   1.520 -2.3278 -1.0490 -0.6590
 3095SOL    HW312153   5.495   0.482   1.581  0.5074  0.1195  0.5904
 3095SOL    MW412154   5.479   0.532   1.511  0.1400 -0.3995 -0.1444
 3096SOL     OW12155   4.699   1.542   5.054 -0.3090 -0.1461 -0.0134
 3096SOL    HW212156   4.616   1.589   5.048 -0.8342 -1.1653 -0.9652
 3096SOL    HW312157   4.762   1.608   5.084 -0.9925  1.2213 -1.4513
 3096SOL    MW412158   4.697   1.557   5.057 -0.3194  0.1501  0.4945
 3097SOL     OW12159   0.834   4.499   0.693  0.1539  0.0219 -0.7433
 3097SOL    HW212160   0.753   4.516   0.741  0.5078  1.1984 -0.5326
 3097SOL    HW312161   0.818   4.417   0.647 -1.0938  0.1554 -0.5762
 3097SOL    MW412162   0.821   4.491   0.693  0.2290 -0.4419 -0.5825
 3098SOL     OW12163   2.294   2.967   0.583 -0.3696  0.2534 -0.1011
 3098SOL    HW212164   2.326   2.947   0.496 -2.6851 -1.2917 -0.6894
 3098SOL    HW312165   2.368   2.950   0.642  0.7139 -0.2809 -1.5824
 3098SOL    MW412166   2.308   2.962   0.580 -0.2525 -0.5304 -0.1730
 3099SOL     OW12167   6.047   0.814   4.113  0.2115  0.2895 -0.4183
 3099SOL    HW212168   5.998   0.734   4.092 -0.3828  0.2037  1.1762
 3099SOL    HW312169   6.051   0.862   4.030  0.8469 -1.5066 -1.4915
 3099SOL    MW412170   6.041   0.810   4.099  0.0396  0.3999 -0.3005
 3100SOL     OW12171   5.110   0.980   0.522  0.0683  0.2172  0.3262
 3100SOL    HW212172   5.192   0.935   0.543  0.0732 -0.4325 -0.9686
 3100SOL    HW312173   5.135   1.052   0.464 -0.4117 -1.1105 -1.6345
 3100SOL    MW412174   5.124   0.983   0.517 -0.4511  0.6288 -0.7180
 3101SOL     OW12175   5.194   1.249   0.663 -0.2446  0.0497 -0.0337
 3101SOL    HW212176   5.143   1.329   0.647  1.5719  0.9784 -1.4832
 3101SOL    HW312177   5.148   1.181   0.614 -0.3604  0.7691 -0.9543
 3101SOL    MW412178   5.181   1.251   0.655  0.5509  0.0185  0.4629
 3102SOL     OW12179   0.671   0.250   0.962  0.2676 -0.5446  0.1825
 3102SOL    HW212180   0.749   0.236   0.907  1.4952  1.0208  1.4345
 3102SOL    HW312181   0.673   0.178   1.024 -0.5257 -1.7124 -1.0759
 3102SOL    MW412182   0.682   0.239   0.963 -0.3702  0.4255  0.0334
 3103SOL     OW12183   0.781   2.042   0.909  0.5168 -0.3517 -0.0062
 3103SOL    HW212184   0.823   1.987   0.842  0.0011  0.0033 -0.6288
 3103SOL    HW312185   0.773   2.128   0.868 -2.8918 -0.9249 -0.8407
 3103SOL    MW412186   0.785   2.046   0.895 -0.0860 -1.0701 -0.2867
 3104SOL     OW12187   2.491   1.356   1.437  0.1205  0.1305 -0.5316
 3104SOL    HW212188   2.403   1.325   1.456  0.8733 -1.4094  0.6685
 3104SOL    HW312189   2.506   1.333   1.345 -0.3115 -0.6766 -0.4036
 3104SOL    MW412190   2.482   1.349   1.428  0.4312  0.4135 -0.1115
 3105SOL     OW12191   4.460   0.543   4.755 -0.0480 -0.7629  0.2054
 3105SOL    HW212192   4.403   0.564   4.682  0.8074 -2.4590 -1.0435
 3105SOL    HW312193   4.540   0.592   4.738 -0.6977  0.7853  1.3887
 3105SOL    MW412194   4.463   0.552   4.743  0.6145  0.5905  0.0385
 3106SOL     OW12195   1.554   5.358   1.459 -0.0417  0.2470  0.2514
 3106SOL    HW212196   1.508   5.397   1.534  0.3738  2.1355 -0.4193
 3106SOL    HW312197   1.487   5.353   1.391  0.2090  0.9799 -0.0533
 3106SOL    MW412198   1.539   5.363   1.460 -0.4965 -0.1294  0.8552
 3107SOL     OW12199   2.982   6.357   5.875  0.2482  0.1281  0.7206
 3107SOL    HW212200   2.977   6.262   5.889  0.1221 -0.0441 -0.4399
 3107SOL    HW312201   3.051   6.368   5.809  1.1933  0.9618  1.8133
 3107SOL    MW412202   2.990   6.346   5.868 -0.3295  0.0301  0.1890
 3108SOL     OW12203   4.913   1.912   4.116 -0.2312 -0.5483 -0.0811
 3108SOL    HW212204   4.825   1.913   4.079 -0.5310  0.3735  0.6149
 3108SOL    HW312205   4.948   2.000   4.100  1.1839 -1.3536 -1.7233
 3108SOL    MW412206   4.906   1.924   4.109 -0.3951 -0.0042 -0.3139
 3109SOL     OW12207   5.952   4.121   6.070  0.4173  0.1408 -0.1765
 3109SOL    HW212208   5.866   4.082   6.055  1.1937 -1.0184 -1.8468
 3109SOL    HW312209   5.933   4.213   6.090 -1.3619 -0.6629  2.4143
 3109SOL    MW412210   5.938   4.128   6.071  0.6582  0.4280 -0.2643
 3110SOL     OW12211   2.218   1.145   3.487  0.1547  0.0900  0.2372
 3110SOL    HW212212   2.192   1.052   3.490 -2.0486  0.5674 -1.0516
 3110SOL    HW312213   2.249   1.157   3.397 -1.1226  0.9223 -0.1147
 3110SOL    MW412214   2.218   1.134   3.475 -0.5271  0.1840  0.2753
 3111SOL     OW12215   2.279   3.269   4.721 -0.3742  0.2910  0.0362
 3111SOL    HW212216   2.279   3.177   4.693  0.1019 -0.4315  2.2599
 3111SOL    HW312217   2.188   3.297   4.710 -0.5524 -0.4759 -0.5579
 3111SOL    MW412218   2.267   3.261   4.716  0.6646  0.0288 -0.4938
 3112SOL     OW12219   3.093   3.523   2.729 -0.2406 -0.0941  0.5200
 3112SOL    HW212220   3.159   3.573   2.682 -1.9517  0.8358 -1.0455
 3112SOL    HW312221   3.025   3.588   2.751 -1.8564 -1.4185 -0.2972
 3112SOL    MW412222   3.093   3.539   2.725 -0.1461 -0.0735 -0.0281
 3113SOL     OW12223   5.358   4.899   4.175  0.0327  0.3175 -0.0434
 3113SOL    HW212224   5.316   4.890   4.089  0.5084  1.2514 -0.3801
 3113SOL    HW312225   5.413   4.821   4.183  0.2069  0.3656 -0.7197
 3113SOL    MW412226   5.360   4.887   4.165  0.3588  0.3932 -0.3426
 3114SOL     OW12227   2.242   4.627   4.526 -0.0937 -0.9277 -0.0886
 3114SOL    HW212228   2.290   4.642   4.445 -1.3009 -0.4263 -0.7444
 3114SOL    HW312229   2.300   4.573   4.579  0.6649 -1.3792 -1.3382
 3114SOL    MW412230   2.256   4.622   4.522 -0.3018 -0.1559  0.0763
 3115SOL     OW12231   1.017   2.320   5.040  0.1882  0.6739  0.1676
 3115SOL    HW212232   0.942   2.263   5.059  0.2579  0.2257 -0.7817
 3115SOL    HW312233   1.070   2.268   4.979  2.4377  0.0577  2.5110
 3115SOL    MW412234   1.014   2.305   5.034  0.1895  0.2574  0.0543
 3116SOL     OW12235   0.629   0.651   0.406  0.1706 -0.2507  0.2679
 3116SOL    HW212236   0.652   0.600   0.328 -0.6223  0.3828 -0.3996
 3116SOL    HW312237   0.635   0.588   0.478  2.7466 -0.4088 -0.0011
 3116SOL    MW412238   0.633   0.636   0.405 -0.0924  0.1659 -0.1204
 3117SOL     OW12239   4.151   0.632   6.341 -0.5549  0.4513 -0.1624
 3117SOL    HW212240   4.108   0.546   6.334  0.5613 -0.0272 -1.8420
 3117SOL    HW312241   4.191   0.631   6.428 -1.9129 -0.0583  0.4826
 3117SOL    MW412242   4.151   0.620   6.351  0.7767 -0.0272  0.7498
 3118SOL     OW12243   5.837   0.464   3.437 -0.4683  0.0246 -0.2150
 3118SOL    HW212244   5.857   0.484   3.528 -0.6743  2.7534 -0.6968
 3118SOL    HW312245   5.879   0.379   3.421 -0.6936 -0.6726  2.4602
 3118SOL    MW412246   5.845   0.455   3.447 -0.0361 -0.2486 -0.2709
 3119SOL     OW12247   1.132   3.087   2.812  0.1142  0.0610 -0.4707
 3119SOL    HW212248   1.092   3.040   2.886  1.3160  2.3859  1.8102
 3119SOL    HW312249   1.168   3.017   2.757 -1.1556 -1.8083  0.9081
 3119SOL    MW412250   1.131   3.071   2.815  0.0972  0.3735 -0.6113
 3120SOL     OW12251   3.875   4.224   1.157 -0.3461  0.2543 -0.2357
 3120SOL    HW212252   3.852   4.317   1.150  1.5834  0.7641 -0.3529
 3120SOL    HW312253   3.913   4.202   1.072  1.1122 -0.0570  0.4680
 3120SOL    MW412254   3.877   4.234   1.145  0.6889  0.2435  0.4852
 3121SOL     OW12255   0.106   0.413   4.661 -0.0711 -0.1270 -0.2794
 3121SOL    HW212256   0.088   0.492   4.712  0.3813  0.1914 -0.6039
 3121SOL    HW312257   0.195   0.388   4.686 -0.7416 -1.4306  0.9766
 3121SOL    MW412258   0.116   0.420   4.671  0.0733  0.2269  0.6278
 3122SOL     OW12259   0.736   2.494   6.227  0.0344 -0.0604  0.6053
 3122SOL    HW212260   0.716   2.498   6.133 -1.1609 -1.8820  0.7293
 3122SOL    HW312261   0.827   2.523   6.233  0.4775 -0.8756 -1.2589
 3122SOL    MW412262   0.745   2.498   6.215 -0.2020 -0.0203 -0.0354
 3123SOL     OW12263   0.652   2.354   1.246 -0.1451 -0.3255  0.7761
 3123SOL    HW212264   0.590   2.422   1.220  1.0843  0.3141 -0.6183
 3123SOL    HW312265   0.735   2.382   1.209 -0.0334 -3.8724 -2.3007
 3123SOL    MW412266   0.655   2.367   1.238  0.1284  0.1803  0.4774
 3124SOL     OW12267   5.100   2.533   1.557  0.9134 -0.9132  0.4980
 3124SOL    HW212268   5.107   2.446   1.598  1.6427 -0.6958  0.8557
 3124SOL    HW312269   5.156   2.527   1.480 -0.3942 -1.2940 -0.4516
 3124SOL    MW412270   5.108   2.521   1.552 -0.1460 -0.4178 -0.1303
 3125SOL     OW12271   5.512   1.211   5.372 -0.3104  0.1012 -0.3762
 3125SOL    HW212272   5.481   1.121   5.361  0.0944 -0.3833  1.8186
 3125SOL    HW312273   5.494   1.231   5.464 -2.2617  3.0447 -1.2813
 3125SOL    MW412274   5.506   1.202   5.383 -0.7374 -0.1232  0.1810
 3126SOL     OW12275   4.024   0.779   4.898  0.1710 -0.0782 -0.2379
 3126SOL    HW212276   4.100   0.723   4.914  0.1957  0.0763  0.2075
 3126SOL    HW312277   3.971   0.731   4.835  0.7785 -0.0584 -0.7658
 3126SOL    MW412278   4.027   0.766   4.892  0.4067  0.0036  0.7246
 3127SOL     OW12279   5.351   2.042   4.133 -0.7122 -0.1349 -0.0013
 3127SOL    HW212280   5.420   2.098   4.097  0.8962 -2.0508 -0.1082
 3127SOL    HW312281   5.391   1.955   4.137 -2.8323 -1.1416  0.8738
 3127SOL    MW412282   5.366   2.038   4.129 -0.4080 -0.0403  0.2102
 3128SOL     OW12283   2.875   3.320   4.691  0.5310  0.1501 -0.4116
 3128SOL    HW212284   2.886   3.252   4.758 -0.8796 -0.5308 -0.8334
 3128SOL    HW312285   2.782   3.341   4.693  0.9162  2.0588 -0.3344
 3128SOL    MW412286   2.864   3.314   4.700 -0.3994  1.2978 -0.0168
 3129SOL     OW12287   6.299   2.201   2.447 -0.3459  0.4547 -0.5200
 3129SOL    HW212288   6.262   2.113   2.459 -0.4813  0.1532 -2.7151
 3129SOL    HW312289   6.373   2.204   2.507 -2.0928 -0.0410  1.7711
 3129SOL    MW412290   6.304   2.190   2.456  0.4374  0.6779 -0.6758
 3130SOL     OW12291   0.639   3.145   4.103  0.0912 -0.5650 -0.5060
 3130SOL    HW212292   0.637   3.080   4.173  0.9862  0.2274  0.2814
 3130SOL    HW312293   0.610   3.226   4.144  2.8943  0.4728 -0.3920
 3130SOL    MW412294   0.635   3.147   4.117 -0.0335 -0.1411  0.1885
 3131SOL     OW12295   4.260   1.391   5.091 -0.3271  0.0695 -0.1849
 3131SOL    HW212296   4.344   1.401   5.135  0.3230 -1.8119 -0.9086
 3131SOL    HW312297   4.197   1.378   5.162 -0.1979  2.2774  0.4103
 3131SOL    MW412298   4.263   1.391   5.106  0.5660  0.6996 -0.4076
 3132SOL     OW12299   3.983   2.838   0.879 -0.2556 -0.3879  0.1324
 3132SOL    HW212300   3.894   2.826   0.914 -0.3483  0.3699  0.1801
 3132SOL    HW312301   3.973   2.907   0.814  0.6403  1.1344  1.5508
 3132SOL    MW412302   3.970   2.845   0.875  0.8856 -0.6027  0.0952
 3133SOL     OW12303   3.212   1.226   2.696  0.3948  0.0066  0.3665
 3133SOL    HW212304   3.288   1.172   2.716 -0.6609 -2.5028 -1.8410
 3133SOL    HW312305   3.237   1.276   2.618  0.4425  0.6832  0.8093
 3133SOL    MW412306   3.225   1.226   2.688  0.5375 -0.2767  0.1780
 3134SOL     OW12307   4.588   6.066   3.915  0.3780 -0.0271 -0.2272
 3134SOL    HW212308   4.557   6.094   3.829  1.7497  0.6571 -0.5432
 3134SOL    HW312309   4.573   5.971   3.917 -0.4080  0.0745 -0.8855
 3134SOL    MW412310   4.582   6.057   3.904 -0.5440  0.5370  0.4653
 3135SOL     OW12311   0.605   5.220   2.130  0.3138  0.5612 -0.0366
 3135SOL    HW212312   0.631   5.307   2.159  0.0468  0.9611 -0.9878
 3135SOL    HW312313   0.669   5.196   2.063 -0.5264  0.6992 -0.9144
 3135SOL    MW412314   0.616   5.228   2.125 -0.2345  0.1762 -0.1507
 3136SOL     OW12315   6.144   0.137   3.488 -0.4039  0.3422 -0.2061
 3136SOL    HW212316   6.197   0.059   3.502 -0.3306  0.4190 -0.0559
 3136SOL    HW312317   6.198   0.209   3.519 -0.2334  0.5198 -0.9071
 3136SOL    MW412318   6.158   0.136   3.494 -0.1041 -0.0509 -0.0588
 3137SOL     OW12319   3.657   0.016   0.893  0.2189 -0.1642 -0.1412
 3137SOL    HW212320   3.699   0.101   0.911 -0.2923  0.1125 -0.2306
 3137SOL    HW312321   3.726  -0.036   0.851  0.2777  0.5206 -0.9165
 3137SOL    MW412322   3.672   0.021   0.890 -0.4039 -0.3071 -0.2156
 3138SOL     OW12323   1.295   0.812   1.574 -0.1590 -0.8451 -0.3256
 3138SOL    HW212324   1.280   0.724   1.609  2.1652 -0.8315  0.9309
 3138SOL    HW312325   1.335   0.860   1.647  0.2651  0.7055 -1.5279
 3138SOL    MW412326   1.299   0.807   1.589 -0.6186 -0.5753 -0.4353
 3139SOL     OW12327   1.073   0.332   6.337  0.0429  0.3838  0.3122
 3139SOL    HW212328   1.161   0.364   6.319  0.4454 -1.1116 -0.5422
 3139SOL    HW312329   1.081   0.281   6.417  0.0322 -0.0331  0.0506
 3139SOL    MW412330   1.085   0.330   6.345  0.6570  0.2479 -0.4186
 3140SOL     OW12331   1.896   5.772   3.809  0.5911 -0.1664  0.2031
 3140SOL    HW212332   1.829   5.803   3.748  0.8790 -0.2357 -0.1553
 3140SOL    HW312333   1.856   5.780   3.895 -0.1472 -0.8871 -0.0597
 3140SOL    MW412334   1.882   5.777   3.812 -0.6034 -0.0025  0.2529
 3141SOL     OW12335   2.341   6.271   1.522  0.0175  0.7011  0.0965
 3141SOL    HW212336   2.296   6.285   1.605 -0.5794 -2.2226  0.3734
 3141SOL    HW312337   2.322   6.180   1.499  2.9719  0.3551 -1.5402
 3141SOL    MW412338   2.333   6.261   1.530 -0.8823 -0.2017 -0.0640
 3142SOL     OW12339   2.230   1.964   0.901  0.8914  0.0150  0.2936
 3142SOL    HW212340   2.236   2.059   0.914  0.6640 -0.1704  2.0191
 3142SOL    HW312341   2.321   1.934   0.908  0.8328 -0.0152  1.0993
 3142SOL    MW412342   2.243   1.973   0.904 -0.7159 -0.2535  0.1466
 3143SOL     OW12343   0.717   2.873   5.282 -0.1143 -0.2877  0.3440
 3143SOL    HW212344   0.653   2.916   5.227  0.7734 -0.6293 -0.9956
 3143SOL    HW312345   0.792   2.932   5.284  0.4043 -0.9119 -0.0087
 3143SOL    MW412346   0.719   2.886   5.275 -0.4128 -0.8057 -0.0243
 3144SOL     OW12347   2.926   2.850   3.536 -0.3231  0.2701 -0.2186
 3144SOL    HW212348   2.956   2.782   3.475  0.8668 -0.0661  0.7198
 3144SOL    HW312349   2.970   2.930   3.506 -0.4104  0.2840 -0.3111
 3144SOL    MW412350   2.936   2.852   3.524 -0.5574  0.1125  0.1337
 3145SOL     OW12351   6.115   3.927   1.888 -0.0182  0.4235  0.7214
 3145SOL    HW212352   6.081   3.999   1.835 -0.7325 -0.2464  0.2535
 3145SOL    HW312353   6.088   3.948   1.977 -0.0436  0.8349  0.6198
 3145SOL    MW412354   6.107   3.940   1.893 -0.1261 -0.3607 -1.2272
 3146SOL     OW12355   4.171   3.930   3.810  0.6937 -0.1896  0.0250
 3146SOL    HW212356   4.088   3.954   3.768  0.8419 -0.6452 -0.5389
 3146SOL    HW312357   4.176   3.987   3.887  0.0642  0.1427 -0.1712
 3146SOL    MW412358   4.160   3.941   3.815 -0.2932  0.5223 -0.3346
 3147SOL     OW12359   5.714   5.247   3.739 -0.2863  0.5501 -0.0576
 3147SOL    HW212360   5.760   5.272   3.819 -0.9678  0.4087  0.3820
 3147SOL    HW312361   5.662   5.325   3.717 -0.0633  0.6055 -0.3934
 3147SOL    MW412362   5.713   5.261   3.747 -0.2329  0.2642  0.5013
 3148SOL     OW12363   4.507   0.214   1.060 -0.0005 -0.2417 -0.4243
 3148SOL    HW212364   4.458   0.292   1.033 -0.6642 -1.0286 -1.5610
 3148SOL    HW312365   4.463   0.141   1.017  0.5985 -1.2679  0.6246
 3148SOL    MW412366   4.495   0.215   1.051 -0.5338  0.1477  0.5110
 3149SOL     OW12367   1.293   6.002   0.805  0.4701 -0.5090 -0.0093
 3149SOL    HW212368   1.274   6.078   0.750 -1.1585 -0.3087  0.7929
 3149SOL    HW312369   1.360   5.954   0.756  0.0327  0.3559 -1.5167
 3149SOL    MW412370   1.299   6.006   0.791 -0.1655 -1.2350 -0.6965
 3150SOL     OW12371   0.666   1.589   4.388 -0.7403 -0.2815  0.0048
 3150SOL    HW212372   0.703   1.546   4.465 -0.6656  0.6636  0.5202
 3150SOL    HW312373   0.692   1.681   4.398 -0.1020 -0.2724 -1.5308
 3150SOL    MW412374   0.674   1.596   4.400  0.2286 -0.3004 -0.3307
 3151SOL     OW12375   1.821   5.862   2.536  0.4492 -0.6342  0.1694
 3151SOL    HW212376   1.865   5.947   2.527 -0.3884 -0.2519 -0.4632
 3151SOL    HW312377   1.890   5.798   2.517  0.3453 -0.0100 -2.9752
 3151SOL    MW412378   1.836   5.865   2.532  0.3318  0.5346  0.5113
 3152SOL     OW12379   2.241   2.496   5.492  0.1446 -0.3283  0.0980
 3152SOL    HW212380   2.263   2.583   5.460  0.3372  0.4290  2.1482
 3152SOL    HW312381   2.313   2.472   5.550  0.1953 -1.9686 -0.5829
 3152SOL    MW412382   2.253   2.504   5.496 -0.6043 -0.3697  0.0094
 3153SOL     OW12383   5.875   1.909   4.450  0.1790  0.3448  0.2133
 3153SOL    HW212384   5.853   1.858   4.528 -0.8794 -1.1540 -1.0163
 3153SOL    HW312385   5.969   1.928   4.460  0.7143 -2.1171  0.6032
 3153SOL    MW412386   5.885   1.905   4.461  0.5724  0.3070  0.5953
 3154SOL     OW12387   3.644   4.949   5.838 -0.0933  0.2510 -0.1893
 3154SOL    HW212388   3.678   4.968   5.751  0.1219 -0.9039 -0.3810
 3154SOL    HW312389   3.715   4.974   5.898  0.0337  0.3922 -0.3991
 3154SOL    MW412390   3.658   4.955   5.835 -0.5854  1.2698 -0.4705
 3155SOL     OW12391   5.085   5.139   3.538 -0.1173  0.3224 -0.6518
 3155SOL    HW212392   5.019   5.070   3.545 -0.9302  1.2557  1.9982
 3155SOL    HW312393   5.043   5.216   3.577  1.5803  1.7312 -1.4414
 3155SOL    MW412394   5.071   5.140   3.544  0.3603 -0.2732 -0.2348
 3156SOL     OW12395   2.360   0.279   2.074 -0.3755 -0.0379  0.2726
 3156SOL    HW212396   2.412   0.331   2.135  0.0618 -0.6688  0.4392
 3156SOL    HW312397   2.271   0.283   2.110 -0.2503  0.1671  0.5641
 3156SOL    MW412398   2.355   0.286   2.087  0.6787 -0.2354 -0.3972
 3157SOL     OW12399   0.725   0.113   3.641 -0.0305  0.2880  0.3762
 3157SOL    HW212400   0.780   0.191   3.630  0.0755  0.0268 -1.1993
 3157SOL    HW312401   0.683   0.101   3.556 -1.2378 -0.4985  1.0534
 3157SOL    MW412402   0.727   0.122   3.628 -0.2644 -0.4135 -0.1180
 3158SOL     OW12403   6.035   2.562   5.784 -0.0164 -0.3626 -0.1293
 3158SOL    HW212404   6.081   2.497   5.839 -0.2967  0.3665  1.0088
 3158SOL    HW312405   5.992   2.510   5.717 -1.2530 -1.5189  1.4802
 3158SOL    MW412406   6.036   2.546   5.783  0.0993  0.7728 -0.2266
 3159SOL     OW12407   5.612   0.787   1.094  0.0177 -0.5642  0.2607
 3159SOL    HW212408   5.692   0.835   1.074 -0.1090  0.0351  1.1465
 3159SOL    HW312409   5.626   0.700   1.055  1.0632 -0.4473  0.3475
 3159SOL    MW412410   5.624   0.782   1.086 -0.2488  0.6728  0.3140
 3160SOL     OW12411   1.121   1.762   1.156  0.1487  0.5098  0.0197
 3160SOL    HW212412   1.127   1.752   1.251  0.3683  1.1070  0.0753
 3160SOL    HW312413   1.178   1.694   1.121 -0.6234 -0.2852  0.2881
 3160SOL    MW412414   1.129   1.752   1.164  0.0119 -0.3351  0.0608
 3161SOL     OW12415   2.625   0.943   5.725 -0.0563 -0.0354  0.2535
 3161SOL    HW212416   2.530   0.939   5.713 -0.1200  1.0357  0.2950
 3161SOL    HW312417   2.660   0.937   5.636 -0.2463  1.1155  0.0792
 3161SOL    MW412418   2.617   0.942   5.711  0.1498  0.0510 -0.4405
 3162SOL     OW12419   3.566   0.493   5.764 -0.1694  0.3582 -0.4240
 3162SOL    HW212420   3.575   0.556   5.836 -0.8777  3.1833 -2.6287
 3162SOL    HW312421   3.502   0.430   5.796 -0.9745  1.8919  1.2150
 3162SOL    MW412422   3.559   0.493   5.778  0.1847 -0.1558  0.2276
 3163SOL     OW12423   5.377   4.859   4.682  0.1750  0.1602 -0.0820
 3163SOL    HW212424   5.336   4.857   4.595  0.4497 -1.8896 -0.2282
 3163SOL    HW312425   5.319   4.913   4.735 -0.1508  1.2221 -1.4633
 3163SOL    MW412426   5.364   4.866   4.677  0.4009  0.5189  1.1256
 3164SOL     OW12427   3.645   0.514   4.272 -0.0084 -0.0274 -0.0401
 3164SOL    HW212428   3.625   0.594   4.223 -0.5514  0.9709  1.7352
 3164SOL    HW312429   3.717   0.475   4.224 -0.8628  0.5878 -1.9534
 3164SOL    MW412430   3.652   0.520   4.259 -0.0935 -0.4751 -0.6731
 3165SOL     OW12431   0.528   4.254   1.724 -0.3684 -0.1648  0.2715
 3165SOL    HW212432   0.584   4.292   1.792 -1.8899 -1.1336  2.1314
 3165SOL    HW312433   0.565   4.167   1.708 -0.9631 -0.5728  1.0682
 3165SOL    MW412434   0.540   4.248   1.731 -0.1453 -0.9085  0.3168
 3166SOL     OW12435   3.860   0.672   4.385  0.2268 -0.4462  0.4160
 3166SOL    HW212436   3.793   0.614   4.348 -1.2021  0.7768  1.0078
 3166SOL    HW312437   3.939   0.651   4.335 -1.1999 -0.1086 -2.1661
 3166SOL    MW412438   3.862   0.661   4.373 -0.1325  0.4882  0.5089
 3167SOL     OW12439   6.341   0.855   2.163  0.0020  0.5385  0.4727
 3167SOL    HW212440   6.340   0.906   2.244  2.0165 -0.2402  1.0539
 3167SOL    HW312441   6.434   0.842   2.144 -0.0671 -5.3356  2.0345
 3167SOL    MW412442   6.353   0.860   2.171 -0.8822 -0.3785 -0.4298
 3168SOL     OW12443   4.727   5.468   0.219 -0.3750 -0.3057 -0.0661
 3168SOL    HW212444   4.671   5.424   0.156  0.8831 -1.4723 -0.4242
 3168SOL    HW312445   4.729   5.409   0.295  0.4878 -0.3809 -0.1316
 3168SOL    MW412446   4.720   5.455   0.221  0.6858  0.6449  0.4115
 3169SOL     OW12447   2.896   0.863   6.010  0.2035  0.6267  0.0994
 3169SOL    HW212448   2.981   0.870   5.967 -0.0550  0.0458 -0.5411
 3169SOL    HW312449   2.844   0.807   5.951  0.1635 -1.1040  1.6654
 3169SOL    MW412450   2.900   0.856   5.997  0.2741 -0.2939 -0.2930
 3170SOL     OW12451   0.420   3.867   2.269 -0.1735 -0.5072 -0.4317
 3170SOL    HW212452   0.507   3.882   2.235 -0.1038 -0.9571 -0.4566
 3170SOL    HW312453   0.370   3.945   2.245  0.3389 -0.0476 -0.0232
 3170SOL    MW412454   0.425   3.879   2.262  0.4648  0.8636 -0.0884
 3171SOL     OW12455   6.428   4.406   5.494  0.0815  0.3342  0.8083
 3171SOL    HW212456   6.434   4.501   5.491  1.3281  0.2659  0.3365
 3171SOL    HW312457   6.335   4.388   5.508 -0.6575  1.5868 -1.7471
 3171SOL    MW412458   6.416   4.416   5.495 -0.0029  0.1023 -0.4200
 3172SOL     OW12459   5.843   3.547   5.796  0.5393 -0.4769 -0.1258
 3172SOL    HW212460   5.849   3.591   5.711 -1.3629  1.2588  0.5805
 3172SOL    HW312461   5.810   3.459   5.775 -0.5112  0.1360 -1.1633
 3172SOL    MW412462   5.839   3.541   5.782  0.2643  0.3206  0.5089
 3173SOL     OW12463   2.483   4.698   2.136  0.2612  0.4911 -0.4142
 3173SOL    HW212464   2.496   4.691   2.041  1.5845  0.0287 -0.2256
 3173SOL    HW312465   2.571   4.716   2.170 -0.0602 -0.1825  0.8002
 3173SOL    MW412466   2.496   4.700   2.128  0.3528  0.0370 -0.1215
 3174SOL     OW12467   2.698   5.330   1.958 -0.3900  0.9439 -0.2818
 3174SOL    HW212468   2.640   5.406   1.949 -0.4768  0.7814 -1.2990
 3174SOL    HW312469   2.724   5.309   1.868 -0.8661 -0.6056 -0.1017
 3174SOL    MW412470   2.694   5.337   1.945 -0.1936  0.3300  0.5246
 3175SOL     OW12471   3.252   4.698   0.482 -0.0365  0.7207 -1.0975
 3175SOL    HW212472   3.276   4.773   0.427 -0.1852  2.7150  1.3716
 3175SOL    HW312473   3.202   4.736   0.554 -0.8603 -1.8988 -0.1556
 3175SOL    MW412474   3.248   4.713   0.484 -0.0078 -0.0646 -0.5142
 3176SOL     OW12475   1.554   3.502   1.000 -0.5263  0.3856  0.2288
 3176SOL    HW212476   1.622   3.472   0.939  0.6807 -0.8010  2.0528
 3176SOL    HW312477   1.476   3.454   0.973  0.3517 -1.2453  0.4535
 3176SOL    MW412478   1.553   3.491   0.988 -0.0882 -0.3758 -0.3054
 3177SOL     OW12479   3.090   4.763   5.164  0.2504 -0.0756  0.7865
 3177SOL    HW212480   3.056   4.839   5.212  0.2380  0.4224  0.0199
 3177SOL    HW312481   3.138   4.712   5.229  2.2690  1.7988  0.8648
 3177SOL    MW412482   3.092   4.766   5.179  0.5059 -0.8254  0.3539
 3178SOL     OW12483   2.144   2.233   6.000 -0.0448 -0.6711 -0.6010
 3178SOL    HW212484   2.139   2.237   5.904  0.3583 -1.7058 -0.6731
 3178SOL    HW312485   2.073   2.175   6.026  0.7673 -1.5869 -0.3887
 3178SOL    MW412486   2.134   2.226   5.991 -0.0535  0.1077  0.0916
 3179SOL     OW12487   2.283   3.268   6.413  0.4094 -0.1416  0.0052
 3179SOL    HW212488   2.242   3.247   6.330  0.1639  0.0896  0.0642
 3179SOL    HW312489   2.372   3.235   6.406  0.9128  1.3699 -0.9882
 3179SOL    MW412490   2.289   3.261   6.401  0.1267 -0.0920 -0.1482
 3180SOL     OW12491   3.177   2.329   0.879  0.3617  0.3822 -0.2209
 3180SOL    HW212492   3.117   2.375   0.937  0.0784 -1.4353  1.0203
 3180SOL    HW312493   3.263   2.340   0.919  0.1624 -0.8952  0.6269
 3180SOL    MW412494   3.180   2.337   0.892  0.4304 -0.3371  0.9704
 3181SOL     OW12495   4.717   1.369   0.594  0.0598 -0.3863  0.7371
 3181SOL    HW212496   4.753   1.288   0.558 -0.6329 -1.1466  1.7014
 3181SOL    HW312497   4.643   1.389   0.536  0.4882 -0.2087  0.2478
 3181SOL    MW412498   4.712   1.361   0.581 -0.2975  0.5380 -0.6264
 3182SOL     OW12499   4.266   3.672   3.819  0.8161 -0.3268  0.0242
 3182SOL    HW212500   4.237   3.638   3.903  2.6312 -0.4838  0.6358
 3182SOL    HW312501   4.225   3.758   3.811 -2.0022 -1.6123 -0.4826
 3182SOL    MW412502   4.257   3.678   3.829  0.2469 -0.1047  0.3555
 3183SOL     OW12503   1.120   1.447   2.404 -0.6343 -0.5018 -0.4671
 3183SOL    HW212504   1.084   1.381   2.345 -0.1426 -2.1901  1.0198
 3183SOL    HW312505   1.133   1.400   2.487  3.0167  0.5012 -0.3133
 3183SOL    MW412506   1.117   1.432   2.407 -0.4645  0.1978  0.4690
 3184SOL     OW12507   1.251   2.720   5.988  0.3723 -0.2634 -0.2506
 3184SOL    HW212508   1.312   2.789   5.960  0.3525 -0.4294 -0.6997
 3184SOL    HW312509   1.273   2.705   6.080 -0.4630  1.2369  0.2343
 3184SOL    MW412510   1.262   2.727   5.997 -0.2007  0.1844  0.0345
 3185SOL     OW12511   1.848   2.125   4.113 -0.3287 -0.0885 -0.2928
 3185SOL    HW212512   1.784   2.195   4.128 -1.0122 -0.8071  0.2147
 3185SOL    HW312513   1.909   2.133   4.186  0.3013  0.7387 -0.8976
 3185SOL    MW412514   1.848   2.136   4.124  0.2042 -0.2535 -0.4872
 3186SOL     OW12515   1.091   4.963   0.035 -0.5103  0.1448 -0.2643
 3186SOL    HW212516   1.156   4.933  -0.029 -0.5533 -1.2074  0.3079
 3186SOL    HW312517   1.018   4.902   0.025 -1.7860  1.7078 -0.9767
 3186SOL    MW412518   1.090   4.951   0.025 -0.1420 -0.3769 -0.5417
 3187SOL     OW12519   2.841   4.077   3.606 -0.0973 -0.6121  0.1316
 3187SOL    HW212520   2.757   4.033   3.602 -1.5924  1.9053  1.2498
 3187SOL    HW312521   2.849   4.121   3.522 -1.8423  2.2140  1.3010
 3187SOL    MW412522   2.831   4.077   3.594 -0.0376 -0.1665 -0.4958
 3188SOL     OW12523   0.640   4.788   1.318  0.2626 -0.2522  0.4847
 3188SOL    HW212524   0.601   4.702   1.334  0.3247 -0.4918 -0.5748
 3188SOL    HW312525   0.734   4.773   1.327  0.5414 -1.0382 -2.6131
 3188SOL    MW412526   0.647   4.774   1.321  0.3860 -0.0421  0.3419
 3189SOL     OW12527   0.331   3.503   2.350  0.3803  0.2772 -0.2053
 3189SOL    HW212528   0.420   3.532   2.371  1.1279 -2.2336  0.4708
 3189SOL    HW312529   0.343   3.446   2.273 -0.3761 -1.2470  0.7601
 3189SOL    MW412530   0.344   3.499   2.342  0.3814  0.1580  0.1941
 3190SOL     OW12531   4.060   3.817   4.112  0.1662  1.0025 -0.1349
 3190SOL    HW212532   4.076   3.797   4.204  0.9849  0.1735 -0.4430
 3190SOL    HW312533   3.982   3.765   4.090  1.3175 -0.6704 -0.4908
 3190SOL    MW412534   4.052   3.807   4.121  0.5082  0.0821 -0.3642
 3191SOL     OW12535   4.927   3.222   1.147  0.1371  0.0500  0.3343
 3191SOL    HW212536   4.979   3.299   1.167  0.5093 -0.0438 -0.2645
 3191SOL    HW312537   4.836   3.253   1.148  0.0858  0.0009  2.4478
 3191SOL    MW412538   4.922   3.236   1.150  0.0438  0.1291 -0.5263
 3192SOL     OW12539   5.434   1.153   0.507 -0.4200  0.2226 -0.4945
 3192SOL    HW212540   5.405   1.074   0.552  1.1069  0.6124  1.3295
 3192SOL    HW312541   5.394   1.225   0.555  0.7454  0.6303 -0.0807
 3192SOL    MW412542   5.425   1.152   0.519 -0.3528  0.2067 -0.0737
 3193SOL     OW12543   1.325   1.204   2.339 -0.2828  0.4833  0.0582
 3193SOL    HW212544   1.347   1.154   2.260  1.4424  0.6182  0.4292
 3193SOL    HW312545   1.408   1.217   2.384 -1.1523  0.8922  1.6343
 3193SOL    MW412546   1.339   1.199   2.335 -0.2742  0.1581 -0.3717
 3194SOL     OW12547   1.295   4.466   1.228 -0.4226 -0.1760  0.3792
 3194SOL    HW212548   1.354   4.420   1.168 -1.3767  1.0059 -1.5337
 3194SOL    HW312549   1.297   4.413   1.308  3.5438  0.0184  0.6290
 3194SOL    MW412550   1.303   4.453   1.231  0.1386  0.4739 -0.0206
 3195SOL     OW12551   2.515   3.681   1.899  0.6701 -0.4999 -0.0548
 3195SOL    HW212552   2.449   3.626   1.941  1.4468  0.4564  2.6208
 3195SOL    HW312553   2.491   3.682   1.807 -1.5432 -2.2255  0.4347
 3195SOL    MW412554   2.503   3.674   1.893  0.3722  0.7587 -0.7384
 3196SOL     OW12555   1.224   4.793   5.630 -0.4616 -0.5843 -0.4181
 3196SOL    HW212556   1.157   4.794   5.561 -0.5043 -2.2319 -0.4364
 3196SOL    HW312557   1.302   4.830   5.589 -0.4155 -1.7790 -1.4424
 3196SOL    MW412558   1.225   4.798   5.615  0.0128  0.4535  0.0478
 3197SOL     OW12559   3.431   0.252   2.567  0.2325 -0.1659  0.2307
 3197SOL    HW212560   3.492   0.282   2.634  0.0125 -2.2915  1.4748
 3197SOL    HW312561   3.478   0.184   2.520 -0.4064 -0.2686 -0.2764
 3197SOL    MW412562   3.445   0.247   2.570 -0.0392 -0.0933 -0.1314
 3198SOL     OW12563   6.365   1.964   1.824  0.5837  0.6005 -0.7624
 3198SOL    HW212564   6.381   1.941   1.916 -0.9553  0.3519 -0.5141
 3198SOL    HW312565   6.337   2.055   1.827 -0.9022  0.1830 -0.7579
 3198SOL    MW412566   6.363   1.973   1.837  0.1038 -0.3357  0.3720
 3199SOL     OW12567   2.557   4.298   4.549 -0.1532  0.2008 -0.1371
 3199SOL    HW212568   2.638   4.296   4.499 -0.6580 -1.6260 -0.9763
 3199SOL    HW312569   2.562   4.223   4.608 -0.9118  0.5075  0.3443
 3199SOL    MW412570   2.568   4.288   4.550  0.4322  0.5139 -0.1750
 3200SOL     OW12571   1.119   2.492   0.888 -0.1797 -0.3688 -0.5789
 3200SOL    HW212572   1.056   2.486   0.960 -0.3836 -1.3818 -0.8288
 3200SOL    HW312573   1.121   2.585   0.866 -2.2798 -0.4185 -1.1661
 3200SOL    MW412574   1.111   2.503   0.895  0.8047  0.1526 -0.5933
 3201SOL     OW12575   4.646   3.992   4.488 -0.5782 -0.0403 -0.4398
 3201SOL    HW212576   4.734   3.992   4.526  0.0448  0.3135 -1.7907
 3201SOL    HW312577   4.622   4.084   4.482 -1.5774 -0.1827  1.0439
 3201SOL    MW412578   4.655   4.004   4.492 -0.2161 -0.4333 -0.1320
 3202SOL     OW12579   5.724   6.335   5.916  0.1260  0.0998  0.8675
 3202SOL    HW212580   5.636   6.353   5.949  0.0013 -0.9107  1.1155
 3202SOL    HW312581   5.710   6.291   5.832  0.3509 -0.9173  1.3389
 3202SOL    MW412582   5.710   6.331   5.910  0.1594 -0.0848 -0.1435
 3203SOL     OW12583   1.877   3.611   1.022 -0.6492 -0.3493 -0.6026
 3203SOL    HW212584   1.838   3.647   1.101  0.6331  0.6803 -0.4129
 3203SOL    HW312585   1.963   3.653   1.015 -0.7778 -0.3013 -2.6121
 3203SOL    MW412586   1.883   3.621   1.031 -0.1770 -0.0963 -0.3412
 3204SOL     OW12587   3.148   2.417   5.521 -0.0364 -0.3026  0.3308
 3204SOL    HW212588   3.083   2.393   5.588  0.5140 -0.4172  0.8364
 3204SOL    HW312589   3.131   2.509   5.503  1.2715  0.4297  2.3714
 3204SOL    MW412590   3.137   2.426   5.528  0.5259 -0.4265 -0.7861
 3205SOL     OW12591   4.064   1.277   4.660  0.9181 -0.8300 -0.4027
 3205SOL    HW212592   4.102   1.255   4.745  1.4273  0.0480 -0.3878
 3205SOL    HW312593   4.001   1.347   4.679 -0.9464 -2.4362 -0.3924
 3205SOL    MW412594   4.061   1.283   4.674 -0.2509 -0.0582 -0.3736
 3206SOL     OW12595   5.745   0.573   1.871  0.0760  0.0928 -0.4927
 3206SOL    HW212596   5.655   0.574   1.902  0.9044 -0.0320  2.1756
 3206SOL    HW312597   5.780   0.659   1.895  1.1519 -0.5020  0.1179
 3206SOL    MW412598   5.738   0.584   1.878  0.3751  0.4523 -0.1119
 3207SOL     OW12599   2.779   5.529   4.126  0.6869 -0.3460 -0.2300
 3207SOL    HW212600   2.843   5.473   4.170 -0.7218 -0.3808  1.9325
 3207SOL    HW312601   2.815   5.617   4.134  0.7738 -0.4358  0.4210
 3207SOL    MW412602   2.793   5.533   4.133  0.7453 -0.2185 -0.0785
 3208SOL     OW12603   4.365   6.422   0.930 -0.0805  0.1565  0.6062
 3208SOL    HW212604   4.422   6.346   0.925 -2.4026 -1.6258 -0.6415
 3208SOL    HW312605   4.306   6.403   1.003 -1.2342  0.2887 -0.2568
 3208SOL    MW412606   4.365   6.410   0.939 -0.1517  0.1873  0.7858
 3209SOL     OW12607   2.966   1.543   3.824 -0.0662 -0.5664  0.2106
 3209SOL    HW212608   2.977   1.466   3.768 -0.4444 -1.4496  1.2943
 3209SOL    HW312609   3.054   1.582   3.829  0.4768 -1.7927  0.8008
 3209SOL    MW412610   2.979   1.538   3.817 -0.0002  0.5912  0.0275
 3210SOL     OW12611   2.901   6.073   5.198  0.1508  0.2636 -0.2234
 3210SOL    HW212612   2.926   6.094   5.288  1.7169  4.2568 -1.3166
 3210SOL    HW312613   2.806   6.071   5.198  0.1375 -2.0563  1.8347
 3210SOL    MW412614   2.892   6.076   5.210 -0.0298  0.3715 -0.3071
 3211SOL     OW12615   0.360   0.034   2.747 -0.5517  0.2928  0.1841
 3211SOL    HW212616   0.417  -0.033   2.784 -0.9662  0.1853  0.6404
 3211SOL    HW312617   0.280   0.029   2.800 -1.5174 -0.4645 -1.2564
 3211SOL    MW412618   0.357   0.024   2.759  0.6368 -0.1176 -0.0100
 3212SOL     OW12619   1.951   3.331   5.271 -0.0927 -0.1935  0.1540
 3212SOL    HW212620   2.021   3.266   5.280  0.7588  0.7328  0.4185
 3212SOL    HW312621   1.891   3.293   5.207  0.4387 -1.1868  0.2182
 3212SOL    MW412622   1.952   3.317   5.264  0.2110 -0.1821 -0.7874
 3213SOL     OW12623   5.110   4.996   5.751 -0.1600  0.1610  0.2809
 3213SOL    HW212624   5.057   4.994   5.671 -0.6851  1.0591  0.6014
 3213SOL    HW312625   5.198   5.019   5.721 -0.3227  0.3514 -0.0547
 3213SOL    MW412626   5.115   4.999   5.736 -0.1123 -0.0055 -0.1441
 3214SOL     OW12627   1.792   2.631   1.987 -0.1179 -0.3976 -0.5572
 3214SOL    HW212628   1.718   2.683   2.019  0.3242 -1.1529  1.9580
 3214SOL    HW312629   1.859   2.641   2.056  0.6182 -2.8895 -0.8199
 3214SOL    MW412630   1.791   2.639   2.001 -0.1074 -0.3558  0.2469
 3215SOL     OW12631   3.436   2.009   3.848  0.3630  0.3546  0.2904
 3215SOL    HW212632   3.356   1.971   3.885  0.8218 -0.1021  0.8224
 3215SOL    HW312633   3.482   1.935   3.808  0.6525  0.5683  0.2257
 3215SOL    MW412634   3.431   1.994   3.847  0.3731  0.2847  0.8075
 3216SOL     OW12635   2.304   6.169   1.047 -0.0502  0.2989 -0.0358
 3216SOL    HW212636   2.271   6.134   0.965  0.8176 -1.3866  0.2836
 3216SOL    HW312637   2.378   6.224   1.023  0.4936 -0.5629 -0.3775
 3216SOL    MW412638   2.310   6.172   1.033  0.2587  0.7595 -0.4102
 3217SOL     OW12639   4.841   1.741   0.192 -0.3073 -0.3099  0.1624
 3217SOL    HW212640   4.754   1.761   0.157  0.9270  0.4335 -2.7525
 3217SOL    HW312641   4.856   1.809   0.257 -0.5231  1.8294 -1.9004
 3217SOL    MW412642   4.831   1.752   0.196  0.4517 -0.2699 -0.2284
 3218SOL     OW12643   4.339   1.512   3.245 -0.0605  0.2176 -0.0930
 3218SOL    HW212644   4.326   1.606   3.234  0.7533  0.3662  0.1306
 3218SOL    HW312645   4.354   1.500   3.339 -2.6661 -0.4882  0.3110
 3218SOL    MW412646   4.339   1.523   3.256 -0.1854 -0.3355 -0.4920
 3219SOL     OW12647   2.843   4.021   5.109  0.3796 -0.1087 -0.6454
 3219SOL    HW212648   2.871   3.938   5.146 -0.2070  0.5447  1.3963
 3219SOL    HW312649   2.885   4.087   5.164 -1.1853  0.9242 -0.6346
 3219SOL    MW412650   2.852   4.019   5.121  0.0010  0.4027  0.1959
 3220SOL     OW12651   6.000   2.555   0.331 -0.1780  0.7927  0.3054
 3220SOL    HW212652   5.923   2.522   0.286 -0.7999  0.6818  1.4250
 3220SOL    HW312653   6.067   2.488   0.317  0.3084  1.6666 -2.1454
 3220SOL    MW412654   5.999   2.542   0.323  0.6977  0.4209 -0.5455
 3221SOL     OW12655   0.024   1.285   0.835  0.1297 -0.1314 -0.0424
 3221SOL    HW212656   0.002   1.203   0.791  0.5304  0.6344 -1.7531
 3221SOL    HW312657   0.092   1.260   0.899  1.9260 -0.8382 -2.1025
 3221SOL    MW412658   0.030   1.271   0.838 -0.2007  0.7016  0.0380
 3222SOL     OW12659   1.926   6.244   4.837 -0.2246 -0.5160 -0.0032
 3222SOL    HW212660   1.924   6.233   4.742  0.4714  0.9798 -0.2218
 3222SOL    HW312661   1.944   6.337   4.850 -0.4350 -0.6688  1.6007
 3222SOL    MW412662   1.928   6.255   4.827 -0.4220  0.6798 -0.3157
 3223SOL     OW12663   0.619   2.965   5.904  0.6458  0.0470  0.1530
 3223SOL    HW212664   0.690   2.957   5.840 -0.2091 -0.4738 -0.7560
 3223SOL    HW312665   0.540   2.942   5.855 -0.0298 -0.3814  1.4072
 3223SOL    MW412666   0.618   2.961   5.889  0.1103 -0.1447  0.2618
 3224SOL     OW12667   1.269   5.528   4.876  0.1275 -0.6952 -0.6483
 3224SOL    HW212668   1.355   5.510   4.914 -0.4044 -1.1067  0.4071
 3224SOL    HW312669   1.233   5.598   4.929 -0.9956 -1.8815  0.2188
 3224SOL    MW412670   1.275   5.535   4.888 -0.6028  0.2125 -0.3870
 3225SOL     OW12671   4.373   3.835   0.944  0.0697 -0.7432 -0.2752
 3225SOL    HW212672   4.435   3.907   0.943 -0.9603  0.2104  0.9385
 3225SOL    HW312673   4.396   3.784   1.023 -0.5637 -0.4702  0.0967
 3225SOL    MW412674   4.384   3.837   0.955  0.4000  0.3006 -0.7930
 3226SOL     OW12675   3.987   4.973   1.935 -0.0039 -0.5137  0.4698
 3226SOL    HW212676   3.969   4.951   2.026 -4.0232  3.8305  1.1296
 3226SOL    HW312677   4.069   5.023   1.938  0.2477 -0.9590  1.5594
 3226SOL    MW412678   3.996   4.977   1.947  0.4068  0.1627  0.2800
 3227SOL     OW12679   0.996   5.199   3.428 -0.2693 -0.4121 -0.1865
 3227SOL    HW212680   0.955   5.286   3.436 -0.8989 -0.6230 -0.9899
 3227SOL    HW312681   0.924   5.141   3.406  0.2230 -1.0707 -0.0754
 3227SOL    MW412682   0.981   5.203   3.426  1.0809 -0.3523 -0.5574
 3228SOL     OW12683   5.474   1.714   0.304 -0.6376  0.6124 -0.4667
 3228SOL    HW212684   5.473   1.777   0.375  0.0143 -0.0350  0.1278
 3228SOL    HW312685   5.504   1.764   0.228  0.5807  0.8798  0.1579
 3228SOL    MW412686   5.478   1.729   0.303  0.1002  0.2365 -0.2950
 3229SOL     OW12687   5.216   2.098   5.144  0.1468  0.3325  0.0973
 3229SOL    HW212688   5.292   2.041   5.139  0.2941  0.5638 -0.3366
 3229SOL    HW312689   5.201   2.109   5.238  0.7173  0.3746  0.1867
 3229SOL    MW412690   5.224   2.092   5.156 -0.0239 -0.3894  0.5220
 3230SOL     OW12691   2.513   1.014   1.117 -0.1562 -0.3991 -0.4889
 3230SOL    HW212692   2.445   1.076   1.090  1.6596  1.3762 -1.2479
 3230SOL    HW312693   2.558   1.057   1.190  0.5888 -1.2276 -0.4372
 3230SOL    MW412694   2.510   1.027   1.123  0.0995 -0.6824 -0.0446
 3231SOL     OW12695   5.583   5.018   1.278  0.2883  0.6268 -0.6794
 3231SOL    HW212696   5.559   4.930   1.250 -1.9759  0.8447  0.3001
 3231SOL    HW312697   5.629   5.005   1.361 -1.1684  0.3467  0.1351
 3231SOL    MW412698   5.586   5.005   1.285 -0.1502  0.5001 -0.0337
 3232SOL     OW12699   2.150   4.455   0.286  0.2115  0.2314 -0.1300
 3232SOL    HW212700   2.232   4.503   0.272  1.3006 -1.1156  1.3857
 3232SOL    HW312701   2.173   4.364   0.270 -1.8140  0.0811 -2.8991
 3232SOL    MW412702   2.164   4.449   0.282  0.1610  0.0152 -0.0430
 3233SOL     OW12703   4.510   1.581   5.636 -0.2459  0.1329 -0.0542
 3233SOL    HW212704   4.476   1.640   5.704  1.2836 -0.0756  0.9665
 3233SOL    HW312705   4.520   1.497   5.681  2.0990  0.3293 -0.0735
 3233SOL    MW412706   4.507   1.578   5.651  0.4993 -0.0707 -0.3583
 3234SOL     OW12707   3.829   0.695   4.664 -0.6998 -0.2582  0.3689
 3234SOL    HW212708   3.842   0.696   4.569 -0.3157 -0.0426  0.4227
 3234SOL    HW312709   3.798   0.783   4.685  2.4298  0.8417  0.8709
 3234SOL    MW412710   3.827   0.707   4.654  0.2816 -0.7077 -0.2147
 3235SOL     OW12711   6.204   2.415   5.488  0.7102 -0.1523  0.3880
 3235SOL    HW212712   6.136   2.473   5.521  2.0116  0.5004  2.0280
 3235SOL    HW312713   6.244   2.463   5.415 -0.9609 -0.8346 -1.0721
 3235SOL    MW412714   6.200   2.429   5.482 -0.0757 -0.7833  0.3923
 3236SOL     OW12715   0.419   4.297   4.929 -0.0533 -0.0550 -0.8020
 3236SOL    HW212716   0.352   4.254   4.875 -1.0923 -1.9172  1.7340
 3236SOL    HW312717   0.370   4.331   5.004  1.5779  0.5346  0.0429
 3236SOL    MW412718   0.403   4.296   4.932 -0.6382 -0.4597  0.3154
 3237SOL     OW12719   1.180   1.273   3.900  0.0361  0.5829 -0.5413
 3237SOL    HW212720   1.199   1.349   3.954  2.1362 -0.6483  0.5680
 3237SOL    HW312721   1.249   1.272   3.834  0.9622 -1.1668  0.3989
 3237SOL    MW412722   1.192   1.283   3.898  0.0701 -0.1172  0.0380
 3238SOL     OW12723   0.836   5.345   5.359 -0.1863 -0.0496  0.3560
 3238SOL    HW212724   0.795   5.279   5.414 -0.2524 -0.2212  0.1022
 3238SOL    HW312725   0.913   5.301   5.323 -1.4817 -0.7925 -1.6947
 3238SOL    MW412726   0.841   5.331   5.362  0.6137 -0.3796  0.6680
 3239SOL     OW12727   4.573   5.663   5.721  0.2711 -0.2315  0.5027
 3239SOL    HW212728   4.595   5.717   5.797  0.8187 -1.1475  1.0112
 3239SOL    HW312729   4.497   5.706   5.682  0.7851  0.9744  0.8078
 3239SOL    MW412730   4.566   5.676   5.726  0.6022 -0.0876  0.5051
 3240SOL     OW12731   1.226   3.464   6.175 -0.2508  0.3861 -0.2927
 3240SOL    HW212732   1.290   3.407   6.132 -0.0856  0.3521 -0.0070
 3240SOL    HW312733   1.239   3.550   6.136  0.7084  0.6289  0.5125
 3240SOL    MW412734   1.236   3.468   6.165  0.1013 -0.8327  0.1964
 3241SOL     OW12735   3.404   2.667   5.518  0.0802 -0.1521 -0.4539
 3241SOL    HW212736   3.496   2.640   5.526 -0.4014 -1.5749  0.8146
 3241SOL    HW312737   3.378   2.641   5.430  0.8637  0.2207 -0.8089
 3241SOL    MW412738   3.413   2.660   5.508 -0.0910  0.1855  0.4637
 3242SOL     OW12739   2.710   1.076   1.333 -0.0496 -0.1746 -0.6661
 3242SOL    HW212740   2.751   1.010   1.277  0.6189 -0.6757  0.3847
 3242SOL    HW312741   2.782   1.111   1.386 -0.3932  1.4079 -1.1986
 3242SOL    MW412742   2.725   1.071   1.333 -0.6955 -0.1056 -0.5065
 3243SOL     OW12743   3.921   0.289   2.909  0.1117 -0.0941  0.1901
 3243SOL    HW212744   3.855   0.224   2.886 -1.6272  1.9654 -1.0484
 3243SOL    HW312745   3.872   0.370   2.919  2.3057  1.2652  0.6764
 3243SOL    MW412746   3.906   0.291   2.908  0.0731 -0.2560  0.0035
 3244SOL     OW12747   2.633   4.328   3.448  0.2787 -0.0909 -0.4742
 3244SOL    HW212748   2.666   4.311   3.360  0.0906 -0.6528 -0.4395
 3244SOL    HW312749   2.700   4.382   3.489  0.3030  0.2823 -1.0065
 3244SOL    MW412750   2.646   4.333   3.442 -0.0957 -0.0064  0.1955
 3245SOL     OW12751   6.190   5.292   0.971  0.3559 -0.3067  0.5589
 3245SOL    HW212752   6.135   5.239   0.914 -0.4581  0.0403  1.0192
 3245SOL    HW312753   6.143   5.297   1.054  0.4297  1.1105  0.5388
 3245SOL    MW412754   6.177   5.285   0.974 -0.1606 -0.1126  0.1051
 3246SOL     OW12755   1.230   3.342   1.689  0.0091 -0.1199  0.1297
 3246SOL    HW212756   1.214   3.398   1.765  0.2140 -0.5949  0.5339
 3246SOL    HW312757   1.198   3.392   1.614 -1.5231 -0.2091  0.6814
 3246SOL    MW412758   1.224   3.356   1.689  0.5474 -0.1185  0.3473
 3247SOL     OW12759   5.523   1.264   4.830 -0.1196  0.3473 -0.4485
 3247SOL    HW212760   5.566   1.333   4.779  0.2543 -1.5542 -2.8809
 3247SOL    HW312761   5.529   1.186   4.774 -1.9145 -1.2885  1.5070
 3247SOL    MW412762   5.530   1.263   4.816 -0.2927  0.4750  0.2571
 3248SOL     OW12763   4.046   6.117   6.351  0.2450  0.0370 -0.3155
 3248SOL    HW212764   4.039   6.024   6.330  2.2356 -0.3109  0.3451
 3248SOL    HW312765   3.994   6.128   6.430  0.8703 -0.7626  0.2228
 3248SOL    MW412766   4.038   6.106   6.358 -0.5970 -0.3511  0.1463
 3249SOL     OW12767   5.653   1.909   1.024  0.3998  0.0444 -0.4230
 3249SOL    HW212768   5.685   1.915   1.114  0.5708  2.1155 -0.5819
 3249SOL    HW312769   5.563   1.943   1.028  0.1035 -0.6622 -0.9050
 3249SOL    MW412770   5.645   1.914   1.037  0.2458  0.4602 -0.5680
 3250SOL     OW12771   2.703   5.801   3.332 -0.0025  0.1320 -0.0240
 3250SOL    HW212772   2.648   5.876   3.308  0.7507  0.7256  0.0629
 3250SOL    HW312773   2.676   5.779   3.421 -0.1596  0.3643 -0.0117
 3250SOL    MW412774   2.692   5.808   3.340  0.4093  0.2088  0.2662
 3251SOL     OW12775   0.493   5.645   3.821  0.3784  0.3798 -0.1174
 3251SOL    HW212776   0.576   5.653   3.867  0.7170  0.0352 -0.6650
 3251SOL    HW312777   0.452   5.731   3.831 -0.4033 -0.1853  2.4169
 3251SOL    MW412778   0.498   5.658   3.829  0.6756 -0.6974  0.3828
 3252SOL     OW12779   3.633   4.120   3.956  0.2215 -0.0620  0.0672
 3252SOL    HW212780   3.663   4.044   4.006  0.2156 -1.5875 -2.0994
 3252SOL    HW312781   3.550   4.144   3.996  0.7960 -0.4270  1.5402
 3252SOL    MW412782   3.626   4.113   3.968  0.2884 -0.7060 -0.2807
 3253SOL     OW12783   0.247   2.539   6.279 -0.0679 -0.2174 -0.1252
 3253SOL    HW212784   0.264   2.547   6.373  0.0493 -0.2800 -0.1412
 3253SOL    HW312785   0.333   2.550   6.238 -0.0702 -0.5033 -0.2076
 3253SOL    MW412786   0.261   2.542   6.286 -0.2645 -0.8657 -0.1318
 3254SOL     OW12787   5.686   2.914   5.399 -0.1926  0.6530  0.0384
 3254SOL    HW212788   5.747   2.842   5.408 -1.5773 -0.5221  0.3628
 3254SOL    HW312789   5.658   2.934   5.489 -2.5927 -0.9366 -0.2584
 3254SOL    MW412790   5.690   2.907   5.412 -0.5285  0.2594  0.1219
 3255SOL     OW12791   5.683   1.131   4.460 -0.0449 -0.2654  0.4626
 3255SOL    HW212792   5.752   1.064   4.461  0.1120 -0.1039  1.3287
 3255SOL    HW312793   5.661   1.142   4.367  0.5506 -0.8770  0.2433
 3255SOL    MW412794   5.689   1.124   4.448  0.1118  0.2211  0.8922
 3256SOL     OW12795   2.512   4.985   6.017 -0.5524 -0.3744 -0.5176
 3256SOL    HW212796   2.425   5.000   6.053 -0.8714 -4.0369  0.6789
 3256SOL    HW312797   2.498   4.922   5.946  1.1229 -1.4256  0.0197
 3256SOL    MW412798   2.499   4.979   6.013  0.2668 -0.5617 -0.8057
 3257SOL     OW12799   5.788   5.971   4.226  0.6945 -0.6460  0.0675
 3257SOL    HW212800   5.764   6.001   4.313 -0.0456  0.9632 -0.6564
 3257SOL    HW312801   5.705   5.947   4.185  0.9461 -0.6074 -0.4739
 3257SOL    MW412802   5.774   5.971   4.232 -0.0621 -0.3916  0.3885
 3258SOL     OW12803   4.555   1.718   3.616  0.1528  0.0688 -0.0462
 3258SOL    HW212804   4.649   1.716   3.636  0.2901 -1.4995 -0.6966
 3258SOL    HW312805   4.545   1.793   3.558  0.5730  1.6808  1.8646
 3258SOL    MW412806   4.566   1.728   3.611 -0.1442 -0.2672 -0.1191
 3259SOL     OW12807   0.944   4.280   1.791  0.2629 -0.5541 -0.8882
 3259SOL    HW212808   1.011   4.303   1.726  0.4476 -1.6681 -1.1137
 3259SOL    HW312809   0.869   4.336   1.769  0.0693 -1.3988 -2.5379
 3259SOL    MW412810   0.943   4.290   1.779  0.2507  0.2678 -0.5252
 3260SOL     OW12811   2.347   1.560   1.886 -1.1306 -0.4046  0.4265
 3260SOL    HW212812   2.314   1.483   1.838  0.3347 -0.8392  0.0767
 3260SOL    HW312813   2.418   1.593   1.832 -1.7302  1.2256  0.5823
 3260SOL    MW412814   2.352   1.554   1.872  0.0648 -0.4745 -0.2893
 3261SOL     OW12815   4.742   6.136   5.768  0.5165  0.1935  0.2527
 3261SOL    HW212816   4.744   6.151   5.863 -0.0858 -0.6121  0.3990
 3261SOL    HW312817   4.665   6.081   5.753  0.9752 -0.2421 -0.6221
 3261SOL    MW412818   4.732   6.131   5.779  0.2113 -0.0733 -0.1661
 3262SOL     OW12819   1.890   3.776   6.207 -0.1806 -0.5302 -0.2444
 3262SOL    HW212820   1.796   3.761   6.213 -0.2097 -0.3299 -0.1687
 3262SOL    HW312821   1.928   3.690   6.190 -0.5247 -0.3815 -2.0060
 3262SOL    MW412822   1.883   3.763   6.205  0.4058 -0.4909  0.1337
 3263SOL     OW12823   6.399   0.236   2.732 -0.1227 -0.2357 -0.1419
 3263SOL    HW212824   6.431   0.318   2.771 -0.6071 -0.1995  0.1772
 3263SOL    HW312825   6.403   0.252   2.638 -0.0441  0.0912 -0.0860
 3263SOL    MW412826   6.404   0.249   2.725 -0.0882 -0.0130 -0.4816
 3264SOL     OW12827   0.997   0.014   1.476 -0.0934 -0.0749 -0.1419
 3264SOL    HW212828   1.076   0.019   1.530 -0.0891  0.7251 -0.2108
 3264SOL    HW312829   1.003  -0.072   1.433  0.4866 -0.2296  0.2362
 3264SOL    MW412830   1.009   0.003   1.477 -0.8850  0.1880  0.1386
 3265SOL     OW12831   4.160   5.194   2.921 -0.7783  0.6930 -0.3045
 3265SOL    HW212832   4.241   5.176   2.969 -1.0666  0.2637  0.0273
 3265SOL    HW312833   4.115   5.258   2.975 -0.7795  0.7405 -0.3621
 3265SOL    MW412834   4.165   5.200   2.935  0.2645  0.6439  0.0804
 3266SOL     OW12835   2.397   3.204   4.975 -0.5056  0.6285 -0.0614
 3266SOL    HW212836   2.345   3.204   4.895  0.1728 -0.5101 -0.5306
 3266SOL    HW312837   2.485   3.176   4.947 -0.7619 -1.9173  1.3397
 3266SOL    MW412838   2.402   3.200   4.961 -0.2367  0.0053  0.1370
 3267SOL     OW12839   6.062   5.757   3.392  0.4214  0.2537  0.0803
 3267SOL    HW212840   6.073   5.680   3.447 -0.0730 -1.0283 -1.5511
 3267SOL    HW312841   5.990   5.735   3.333  1.2634  1.3376 -1.4451
 3267SOL    MW412842   6.054   5.744   3.391  0.0348 -0.4647 -0.1648
 3268SOL     OW12843   2.219   3.646   0.144  0.0373 -0.6055  0.0488
 3268SOL    HW212844   2.139   3.697   0.130  0.5021  0.7910  2.0360
 3268SOL    HW312845   2.258   3.638   0.057 -0.9690  0.9403 -0.5916
 3268SOL    MW412846   2.214   3.652   0.131  0.6160 -0.5412 -0.2397
 3269SOL     OW12847   5.575   5.775   1.379  1.0910 -0.5889  0.3084
 3269SOL    HW212848   5.487   5.770   1.342  1.5423 -4.0186 -0.6647
 3269SOL    HW312849   5.631   5.733   1.314  3.4209  0.9448  1.1771
 3269SOL    MW412850   5.571   5.769   1.366 -0.5024 -0.1564 -0.2604
 3270SOL     OW12851   5.853   1.477   2.697  0.3922 -0.0797 -1.0827
 3270SOL    HW212852   5.871   1.465   2.604 -1.8793 -1.7654 -1.3748
 3270SOL    HW312853   5.759   1.495   2.702  0.1108 -1.6461  0.9461
 3270SOL    MW412854   5.843   1.478   2.686  0.4206  0.1119 -0.1972
 3271SOL     OW12855   2.029   4.052   3.749  0.7018  0.1987  0.2440
 3271SOL    HW212856   1.979   3.973   3.771 -1.0822  0.9298 -0.9053
 3271SOL    HW312857   2.121   4.026   3.756  0.1578 -1.8602  0.2875
 3271SOL    MW412858   2.034   4.038   3.753 -0.0608 -0.1804 -0.4451
 3272SOL     OW12859   3.253   4.114   3.023  0.0078 -0.2645 -0.0804
 3272SOL    HW212860   3.336   4.136   3.065 -0.8360  1.8336  0.6003
 3272SOL    HW312861   3.232   4.190   2.969 -1.1794 -1.0245 -0.7493
 3272SOL    MW412862   3.261   4.127   3.021 -0.0055 -0.3501  0.0841
 3273SOL     OW12863   2.403   2.574   2.360 -0.7155  0.0917  0.0986
 3273SOL    HW212864   2.312   2.561   2.386 -0.8486  1.5950  0.4467
 3273SOL    HW312865   2.417   2.511   2.290 -1.5194 -1.3231  1.1510
 3273SOL    MW412866   2.393   2.564   2.354 -0.2015 -0.0771  0.5598
 3274SOL     OW12867   2.769   0.296   3.306 -0.3873 -0.4595 -0.3208
 3274SOL    HW212868   2.738   0.262   3.390 -1.1385 -3.0116 -1.5225
 3274SOL    HW312869   2.696   0.348   3.272 -0.2273  0.2548  0.3967
 3274SOL    MW412870   2.756   0.298   3.312 -0.3215 -0.3924  0.4557
 3275SOL     OW12871   2.048   0.698   4.524 -0.0296 -0.4381  0.3881
 3275SOL    HW212872   2.050   0.785   4.564 -1.0645  0.0076 -0.4865
 3275SOL    HW312873   1.985   0.649   4.577 -1.0619  0.0176 -0.3735
 3275SOL    MW412874   2.040   0.703   4.536  0.4342 -0.2123 -0.2722
 3276SOL     OW12875   0.040   3.903   3.290 -0.0745  0.0214 -0.2864
 3276SOL    HW212876   0.059   3.990   3.255  0.5291  0.4312  1.0121
 3276SOL    HW312877   0.100   3.893   3.364 -1.3348 -0.7819  0.6686
 3276SOL    MW412878   0.050   3.913   3.295  0.0169  0.2218  0.5866
 3277SOL     OW12879   2.736   4.283   3.778 -0.2201  0.2667 -0.0097
 3277SOL    HW212880   2.791   4.235   3.716 -0.6649 -0.4911  0.1660
 3277SOL    HW312881   2.752   4.240   3.862 -0.1960  0.7990  0.2632
 3277SOL    MW412882   2.745   4.271   3.781  0.1635  0.2236  0.1691
 3278SOL     OW12883   3.848   6.243   5.043 -0.1058  0.2804  0.1830
 3278SOL    HW212884   3.759   6.271   5.061  0.1582  0.9280  0.5216
 3278SOL    HW312885   3.881   6.213   5.128 -0.3051 -0.8759 -0.1221
 3278SOL    MW412886   3.841   6.243   5.057  0.5768 -0.1495  0.4048
 3279SOL     OW12887   4.579   0.242   3.223 -0.2777  0.5385 -0.1321
 3279SOL    HW212888   4.510   0.204   3.168 -0.0447 -0.0408 -0.0316
 3279SOL    HW312889   4.638   0.169   3.241 -0.4551  0.6638  1.0591
 3279SOL    MW412890   4.578   0.227   3.218  0.5792  0.2250 -0.1015
 3280SOL     OW12891   0.826   1.962   2.034  0.1467  0.1803 -0.7690
 3280SOL    HW212892   0.881   1.892   2.069  0.8937  0.3164 -1.6240
 3280SOL    HW312893   0.751   1.966   2.093  2.3401  1.8688  2.1289
 3280SOL    MW412894   0.823   1.953   2.046  0.9363  0.1861 -0.1441
 3281SOL     OW12895   4.584   1.865   4.202 -0.1017  0.4880 -0.2793
 3281SOL    HW212896   4.544   1.942   4.161  3.9854  2.7510 -0.5899
 3281SOL    HW312897   4.610   1.810   4.129 -0.0977  0.4324 -0.2361
 3281SOL    MW412898   4.582   1.868   4.187  0.9605  0.2157 -0.4999
 3282SOL     OW12899   6.311   2.094   3.357 -0.3802 -0.2303  0.4871
 3282SOL    HW212900   6.328   2.187   3.344  0.1883 -0.2934  0.7932
 3282SOL    HW312901   6.215   2.088   3.363 -0.3948  0.3900  0.9215
 3282SOL    MW412902   6.300   2.105   3.356  0.3242 -0.1901  0.4428
 3283SOL     OW12903   4.010   5.606   0.310  0.1989 -0.4946 -0.3805
 3283SOL    HW212904   4.014   5.691   0.266  0.2095  0.4389  1.3291
 3283SOL    HW312905   4.005   5.542   0.239 -0.9712  0.9868 -1.6945
 3283SOL    MW412906   4.010   5.608   0.295 -0.5790  0.0072  0.0807
 3284SOL     OW12907   0.108   2.654   2.779  0.0064 -0.4947  0.2618
 3284SOL    HW212908   0.048   2.623   2.847  0.8969  0.2573  1.4055
 3284SOL    HW312909   0.181   2.592   2.781 -0.4948 -1.1724 -0.8611
 3284SOL    MW412910   0.109   2.642   2.788  0.1289  0.2300  0.0380
 3285SOL     OW12911   3.975   0.258   5.937 -0.1557  0.2703 -0.9382
 3285SOL    HW212912   3.925   0.309   6.000 -0.6639 -0.1461 -0.9873
 3285SOL    HW312913   4.017   0.189   5.989  2.1601  1.8552 -0.5615
 3285SOL    MW412914   3.974   0.256   5.952  0.0485 -0.6974  0.3227
 3286SOL     OW12915   1.777   4.659   1.251  0.8037  0.0695  0.4981
 3286SOL    HW212916   1.826   4.605   1.188 -0.1793 -1.8913  1.3285
 3286SOL    HW312917   1.725   4.718   1.197  0.5852 -1.0201 -0.5287
 3286SOL    MW412918   1.777   4.660   1.236 -0.2230  0.0082  0.0774
 3287SOL     OW12919   5.033   3.870   0.935 -0.2573  0.4871  0.6466
 3287SOL    HW212920   5.020   3.776   0.937  2.3597  0.0351  0.2215
 3287SOL    HW312921   4.945   3.907   0.942 -1.2566 -1.9395  2.0561
 3287SOL    MW412922   5.020   3.863   0.936  0.2321 -0.4434 -0.2490
 3288SOL     OW12923   0.049   1.578   2.954 -0.3445  0.0216  0.2602
 3288SOL    HW212924   0.142   1.562   2.939 -0.5122  0.4011 -1.3491
 3288SOL    HW312925   0.047   1.643   3.024  0.5999 -0.1357  0.4480
 3288SOL    MW412926   0.061   1.585   2.961  0.0854 -0.3344 -0.4963
 3289SOL     OW12927   3.792   4.501   3.395 -0.3529  0.1741 -0.2598
 3289SOL    HW212928   3.776   4.594   3.376  0.2792  0.4606  0.5567
 3289SOL    HW312929   3.773   4.457   3.312  0.2517  1.1435 -0.9488
 3289SOL    MW412930   3.788   4.508   3.382  0.0348 -0.1642 -0.1394
 3290SOL     OW12931   6.057   1.503   5.051 -0.4089 -0.8955  0.1461
 3290SOL    HW212932   6.030   1.441   5.120  0.2015 -0.6973  0.5759
 3290SOL    HW312933   5.997   1.486   4.979 -0.8842 -1.3062  0.6261
 3290SOL    MW412934   6.045   1.492   5.051  0.2119 -1.0730  0.3137
 3291SOL     OW12935   6.174   3.788   4.209  0.2876 -0.0497 -0.2561
 3291SOL    HW212936   6.266   3.811   4.199  0.0377  0.8116 -0.6952
 3291SOL    HW312937   6.158   3.722   4.141  0.2106  0.9589 -1.2490
 3291SOL    MW412938   6.184   3.782   4.199 -0.1551  0.1004 -0.1768
 3292SOL     OW12939   6.400   3.145   4.512  0.0178  0.0090  0.4067
 3292SOL    HW212940   6.388   3.050   4.507  1.1755 -0.1006 -1.8645
 3292SOL    HW312941   6.474   3.157   4.571 -0.4130 -0.4663  1.0476
 3292SOL    MW412942   6.408   3.134   4.519 -0.2227 -0.1327 -0.0019
 3293SOL     OW12943   5.870   3.151   3.772  0.4868 -0.5560  0.1408
 3293SOL    HW212944   5.900   3.234   3.735 -2.6645  0.9224  0.5807
 3293SOL    HW312945   5.818   3.176   3.848 -0.9661 -2.9085  0.0038
 3293SOL    MW412946   5.867   3.166   3.777  0.0212  0.0519  0.2976
 3294SOL     OW12947   5.584   2.813   6.223 -0.1914  0.3466  0.1655
 3294SOL    HW212948   5.498   2.812   6.180  0.2899  1.7568 -0.9234
 3294SOL    HW312949   5.631   2.885   6.180  0.6127  1.3437  2.5607
 3294SOL    MW412950   5.579   2.822   6.212  0.0030  0.2821  0.0771
 3295SOL     OW12951   3.792   0.127   4.148 -0.3230  0.2306 -0.1878
 3295SOL    HW212952   3.856   0.110   4.217  0.9987  0.4061 -1.3165
 3295SOL    HW312953   3.710   0.090   4.181  0.0738  0.9988  1.7872
 3295SOL    MW412954   3.790   0.120   4.161 -0.5506  0.1376  0.5478
 3296SOL     OW12955   1.487   5.300   0.725  0.3038 -0.7244  0.1852
 3296SOL    HW212956   1.456   5.311   0.636  0.3567 -0.2992  0.2182
 3296SOL    HW312957   1.414   5.258   0.771  0.3365 -1.0931 -0.0940
 3296SOL    MW412958   1.473   5.296   0.719  0.2913  0.6245 -0.1361
 3297SOL     OW12959   0.803   6.256   3.524 -0.0291 -0.1746  0.4183
 3297SOL    HW212960   0.777   6.337   3.566 -0.0523 -0.5529  1.1384
 3297SOL    HW312961   0.722   6.216   3.494  0.1075  0.9609 -1.6330
 3297SOL    MW412962   0.789   6.261   3.525 -0.1510 -0.1448  0.7223
 3298SOL     OW12963   1.977   5.405   0.810 -0.0084 -0.8581  0.0954
 3298SOL    HW212964   2.014   5.387   0.724 -0.6136 -0.7989 -0.1795
 3298SOL    HW312965   2.053   5.423   0.865  0.2900  1.0525 -0.8660
 3298SOL    MW412966   1.992   5.405   0.806  0.2876  0.6871  0.0404
 3299SOL     OW12967   4.427   1.752   0.459 -0.3327 -0.5985  0.2448
 3299SOL    HW212968   4.453   1.835   0.419 -0.6391 -0.9611 -0.7394
 3299SOL    HW312969   4.331   1.756   0.463 -0.3452 -0.8734  0.2480
 3299SOL    MW412970   4.418   1.764   0.454  0.1393  0.0703  0.2775
 3300SOL     OW12971   2.421   3.523   5.413  0.0734 -0.1116  0.3811
 3300SOL    HW212972   2.429   3.570   5.331 -0.2533 -0.2483  0.2661
 3300SOL    HW312973   2.372   3.444   5.391  0.6561 -0.5324  0.5614
 3300SOL    MW412974   2.415   3.519   5.399 -0.0200  0.2632 -0.1347
 3301SOL     OW12975   1.335   5.323   1.254  0.1885  0.2139 -1.0957
 3301SOL    HW212976   1.348   5.241   1.205  0.5222 -1.6607  1.8596
 3301SOL    HW312977   1.350   5.392   1.190  2.4444 -2.0214 -3.1999
 3301SOL    MW412978   1.339   5.321   1.239 -0.5834 -0.2597 -0.2514
 3302SOL     OW12979   1.216   5.649   6.134  0.1175 -0.0156  0.0470
 3302SOL    HW212980   1.298   5.631   6.181  0.0703 -0.7186 -0.1328
 3302SOL    HW312981   1.228   5.608   6.049 -0.2973  0.1618 -0.0976
 3302SOL    MW412982   1.229   5.641   6.129  0.0120  0.0011 -0.3125
 3303SOL     OW12983   2.973   1.428   2.302 -0.1934  0.1181 -0.0807
 3303SOL    HW212984   2.987   1.367   2.229  0.7886  0.9697 -0.6404
 3303SOL    HW312985   3.052   1.421   2.355  0.7302  2.0692 -1.0684
 3303SOL    MW412986   2.985   1.419   2.299 -0.0037 -0.5738  0.6049
 3304SOL     OW12987   0.695   5.238   3.290 -0.5241  0.5613  0.3895
 3304SOL    HW212988   0.601   5.250   3.299 -0.8526 -0.0600 -1.7443
 3304SOL    HW312989   0.718   5.286   3.210  0.7165 -0.4031  0.1354
 3304SOL    MW412990   0.686   5.246   3.280  0.1773  0.1288  0.1411
 3305SOL     OW12991   5.377   1.425   1.048  0.1050 -0.0988  0.2050
 3305SOL    HW212992   5.384   1.361   0.977 -0.2226  1.2565 -1.0980
 3305SOL    HW312993   5.465   1.461   1.056 -0.0128  0.2207  0.0431
 3305SOL    MW412994   5.389   1.421   1.040  0.1965  0.3036  0.2245
 3306SOL     OW12995   4.268   2.138   5.902  0.1957  0.5205  0.1712
 3306SOL    HW212996   4.194   2.080   5.921  0.1382 -0.5094 -2.6589
 3306SOL    HW312997   4.336   2.080   5.868  2.4654  1.4214  2.7922
 3306SOL    MW412998   4.267   2.123   5.900 -0.2795  0.5107 -0.0894
 3307SOL     OW12999   3.298   4.116   4.678 -0.2257 -0.1103 -0.3182
 3307SOL    HW213000   3.329   4.037   4.723 -2.3506 -0.6509  0.3377
 3307SOL    HW313001   3.235   4.084   4.614  0.2775  0.9454 -1.3892
 3307SOL    MW413002   3.294   4.101   4.676 -0.5009  0.7627 -0.0069
 3308SOL     OW13003   5.475   3.175   0.491  0.1309 -0.4170  0.1119
 3308SOL    HW213004   5.450   3.255   0.538 -0.7320 -1.2246  1.0501
 3308SOL    HW313005   5.567   3.189   0.468 -0.7775  2.2431 -2.6258
 3308SOL    MW413006   5.484   3.188   0.494  0.3419  0.4916  0.0429
 3309SOL     OW13007   2.339   0.066   4.932  0.3348 -0.0902 -0.2612
 3309SOL    HW213008   2.394   0.075   5.010 -1.7988 -1.2064  1.4702
 3309SOL    HW313009   2.254   0.103   4.958 -0.3915 -0.3479 -2.1153
 3309SOL    MW413010   2.335   0.072   4.946  0.3430  0.7328 -0.3419
 3310SOL     OW13011   3.607   6.175   0.303  0.2330  0.4527  0.5515
 3310SOL    HW213012   3.681   6.230   0.331 -1.0944  1.5448  2.1486
 3310SOL    HW313013   3.538   6.194   0.368 -1.9978  0.7159 -1.7430
 3310SOL    MW413014   3.608   6.185   0.315 -0.5161 -0.7509  0.0557
 3311SOL     OW13015   1.546   1.124   5.356 -0.1645  0.0526  0.8167
 3311SOL    HW213016   1.600   1.186   5.309  1.0960 -1.0116  0.8013
 3311SOL    HW313017   1.505   1.070   5.288  0.6673 -0.6778  0.8784
 3311SOL    MW413018   1.547   1.125   5.341 -0.2201  0.0239 -0.6811
 3312SOL     OW13019   1.636   2.860   0.933 -0.3606 -0.2528 -0.1198
 3312SOL    HW213020   1.607   2.913   1.007  0.1675 -0.0951 -0.0155
 3312SOL    HW313021   1.720   2.899   0.908  0.2335 -1.2737  0.2088
 3312SOL    MW413022   1.644   2.872   0.940 -0.3414 -0.0941  0.2511
 3313SOL     OW13023   5.749   2.971   4.352 -0.5191 -0.6754 -0.2238
 3313SOL    HW213024   5.781   2.918   4.278 -1.9569  0.2575 -1.5824
 3313SOL    HW313025   5.825   3.023   4.378 -0.2540 -0.1788 -1.8414
 3313SOL    MW413026   5.763   2.971   4.345 -0.4641  0.3140  0.2820
 3314SOL     OW13027   0.906   0.641   0.994  0.0269 -0.8417  0.3587
 3314SOL    HW213028   0.940   0.642   0.904  1.7761  0.0047  0.9815
 3314SOL    HW313029   0.871   0.728   1.007  1.2698 -0.4035  0.9868
 3314SOL    MW413030   0.906   0.652   0.984  0.5268  0.4939  0.4710
 3315SOL     OW13031   1.897   5.267   6.100 -0.1032 -0.3281 -0.2372
 3315SOL    HW213032   1.884   5.358   6.075 -0.8742 -0.4134 -0.1632
 3315SOL    HW313033   1.986   5.264   6.136 -0.7790  0.8252  1.6419
 3315SOL    MW413034   1.907   5.278   6.102  0.7004  0.5785  0.0158
 3316SOL     OW13035   3.261   2.960   5.382 -0.2800 -0.2209 -0.5910
 3316SOL    HW213036   3.329   3.001   5.329 -0.1004 -1.3972 -1.2996
 3316SOL    HW313037   3.182   2.963   5.328 -0.5103  0.0818 -0.2427
 3316SOL    MW413038   3.260   2.966   5.368  0.2897 -0.5552 -0.7146
 3317SOL     OW13039   5.463   2.156   3.345  0.8876  0.5966 -0.5306
 3317SOL    HW213040   5.519   2.231   3.327  3.8832 -1.1056  0.9683
 3317SOL    HW313041   5.447   2.159   3.439  2.0238 -1.2018 -0.2410
 3317SOL    MW413042   5.468   2.166   3.355 -0.1542  0.3462  0.7871
 3318SOL     OW13043   3.375   5.828   0.597 -0.2792 -0.3601 -0.1117
 3318SOL    HW213044   3.321   5.889   0.648  0.6434  1.8520 -1.6332
 3318SOL    HW313045   3.461   5.832   0.639  0.2502  0.7977 -1.2455
 3318SOL    MW413046   3.379   5.837   0.609  0.0012 -0.4002  0.0979
 3319SOL     OW13047   1.936   5.478   4.887 -0.1864 -0.4375  0.0114
 3319SOL    HW213048   1.843   5.500   4.880  0.1497  1.0822  0.0856
 3319SOL    HW313049   1.971   5.492   4.799 -0.1380 -1.6233 -0.1732
 3319SOL    MW413050   1.928   5.482   4.875  0.1432  0.1389  0.1617
 3320SOL     OW13051   1.971   2.575   1.245  0.0473 -0.1445 -0.4012
 3320SOL    HW213052   1.989   2.526   1.165 -0.1421 -1.4351  0.3226
 3320SOL    HW313053   1.903   2.638   1.220  0.5267 -0.0139 -1.4251
 3320SOL    MW413054   1.964   2.577   1.231 -0.3492  0.3972 -0.2199
 3321SOL     OW13055   6.204   1.825   5.643  0.1061  0.9991  0.3563
 3321SOL    HW213056   6.198   1.837   5.549  2.3229  1.9538  0.2775
 3321SOL    HW313057   6.194   1.913   5.680  0.1949  0.7714  0.9440
 3321SOL    MW413058   6.201   1.838   5.636  0.3184  0.2867 -0.3824
 3322SOL     OW13059   4.081   2.707   5.679  0.4267  0.2073 -0.0743
 3322SOL    HW213060   4.122   2.756   5.608  1.4628 -1.6682 -0.8394
 3322SOL    HW313061   4.152   2.691   5.742 -0.3042  1.1749  1.0585
 3322SOL    MW413062   4.096   2.711   5.678 -0.0923 -0.1887  0.1180
 3323SOL     OW13063   5.866   4.081   4.448  0.1408  0.3380  0.0485
 3323SOL    HW213064   5.924   4.008   4.427 -0.3340 -0.1188  0.3091
 3323SOL    HW313065   5.896   4.152   4.392  0.1469 -0.2778 -0.7528
 3323SOL    MW413066   5.878   4.081   4.438 -0.5411 -0.2143 -0.3031
 3324SOL     OW13067   1.764   1.984   3.628 -0.2232 -0.1623  0.3294
 3324SOL    HW213068   1.824   1.978   3.702 -0.0022  0.7734  0.2444
 3324SOL    HW313069   1.781   1.905   3.577  3.5290  1.5849 -1.5954
 3324SOL    MW413070   1.774   1.973   3.631 -0.3634  1.3229  0.0857
 3325SOL     OW13071   4.188   0.954   3.717  0.1950  0.6548 -0.1933
 3325SOL    HW213072   4.142   0.970   3.634 -0.4641  2.3340  0.4375
 3325SOL    HW313073   4.156   0.868   3.745 -1.2229  0.9935 -0.6506
 3325SOL    MW413074   4.177   0.945   3.709 -0.1555  0.0885 -0.2023
 3326SOL     OW13075   5.134   2.276   2.939  0.4249 -0.4391  0.0956
 3326SOL    HW213076   5.129   2.317   3.025  1.2966  2.8114 -1.2387
 3326SOL    HW313077   5.222   2.239   2.935 -0.0623 -1.7592  1.0117
 3326SOL    MW413078   5.145   2.277   2.950 -0.2155  0.1832 -0.2335
 3327SOL     OW13079   0.277   4.618   2.449  0.0123  0.0432 -0.4912
 3327SOL    HW213080   0.243   4.563   2.520  1.4073 -1.0175 -0.6262
 3327SOL    HW313081   0.320   4.690   2.494  0.4142 -0.3354 -0.2685
 3327SOL    MW413082   0.278   4.620   2.465 -0.5340 -0.1423  0.0433
 3328SOL     OW13083   4.706   5.539   5.077 -0.3172  0.0373  0.2285
 3328SOL    HW213084   4.627   5.547   5.024  1.2166  0.8736 -2.0754
 3328SOL    HW313085   4.696   5.605   5.146 -1.2675  0.7012 -0.5189
 3328SOL    MW413086   4.694   5.549   5.080  0.5221  0.1090 -0.0640
 3329SOL     OW13087   5.118   6.010   2.620 -0.0307  0.4872  0.7756
 3329SOL    HW213088   5.171   6.037   2.695 -1.0178  2.4503  0.8506
 3329SOL    HW313089   5.028   6.015   2.653 -0.3975 -0.2736 -0.0820
 3329SOL    MW413090   5.113   6.014   2.635 -0.2098  0.1791  0.0262
 3330SOL     OW13091   1.542   2.734   2.044 -0.1132 -0.2111 -0.2291
 3330SOL    HW213092   1.538   2.773   2.132  0.3634  0.0350 -0.3116
 3330SOL    HW313093   1.502   2.648   2.055  0.9861 -0.6512  0.5007
 3330SOL    MW413094   1.536   2.728   2.057  0.3628 -0.0378 -0.3143
 3331SOL     OW13095   5.920   0.770   2.883 -0.7824  0.0081  0.0744
 3331SOL    HW213096   5.956   0.709   2.948 -0.4528 -0.5387 -0.6061
 3331SOL    HW313097   5.858   0.823   2.932 -0.3579 -0.2292  0.8939
 3331SOL    MW413098   5.917   0.769   2.898 -0.9392  0.5079 -0.0426
 3332SOL     OW13099   4.395   4.456   5.021  0.2215 -0.0587  0.1329
 3332SOL    HW213100   4.304   4.457   4.991  0.9366 -1.8203 -2.4750
 3332SOL    HW313101   4.404   4.372   5.066  0.0786  1.0347  2.2868
 3332SOL    MW413102   4.384   4.445   5.023 -0.1675 -0.3919 -0.4394
 3333SOL     OW13103   4.289   6.114   0.670 -0.5862  0.2633 -0.1200
 3333SOL    HW213104   4.260   6.073   0.752 -0.8135  0.1221 -0.2706
 3333SOL    HW313105   4.337   6.045   0.625  0.1994  0.5701  0.2395
 3333SOL    MW413106   4.291   6.100   0.675  0.3894 -0.5897  0.9453
 3334SOL     OW13107   2.431   4.139   3.598  0.5314  0.1010  0.3565
 3334SOL    HW213108   2.457   4.196   3.525 -0.6635 -0.9306 -0.9301
 3334SOL    HW313109   2.495   4.068   3.596 -0.1679 -0.5204 -0.4413
 3334SOL    MW413110   2.443   4.137   3.588  0.1032 -0.1346 -0.0421
 3335SOL     OW13111   2.853   2.084   5.386 -0.2619 -0.2153 -0.1725
 3335SOL    HW213112   2.928   2.122   5.431 -0.3723  0.6194 -0.6628
 3335SOL    HW313113   2.889   2.011   5.337  0.2689  0.2917 -0.5524
 3335SOL    MW413114   2.868   2.080   5.386 -0.0839 -0.0545  0.5829
 3336SOL     OW13115   5.868   1.201   5.423 -0.3003 -0.6480  0.0984
 3336SOL    HW213116   5.888   1.284   5.467 -1.3843 -0.6371  0.5907
 3336SOL    HW313117   5.842   1.142   5.493 -0.6862 -1.0561 -0.3782
 3336SOL    MW413118   5.868   1.204   5.438  0.2040 -0.4238 -0.0136
 3337SOL     OW13119   5.354   4.158   0.700  0.2988  0.0574  0.5149
 3337SOL    HW213120   5.311   4.080   0.735 -0.3926  0.1257 -0.1728
 3337SOL    HW313121   5.409   4.189   0.772  1.5493 -1.7559  0.4063
 3337SOL    MW413122   5.356   4.152   0.714 -0.1167  0.5558  0.1975
 3338SOL     OW13123   2.265   1.699   4.974  0.1554 -0.3756  0.2293
 3338SOL    HW213124   2.289   1.607   4.967  1.7021 -0.0599  0.9085
 3338SOL    HW313125   2.298   1.739   4.894 -1.4616 -0.5820 -0.5614
 3338SOL    MW413126   2.273   1.692   4.963  0.2643  0.3287 -0.2884
 3339SOL     OW13127   5.697   3.975   6.051 -0.5139 -0.4006  0.6520
 3339SOL    HW213128   5.678   3.896   6.002 -1.2874 -0.5931  1.2469
 3339SOL    HW313129   5.630   4.038   6.023 -0.6102 -0.3295  1.0345
 3339SOL    MW413130   5.686   3.973   6.041 -0.4117 -0.2006 -0.0796
 3340SOL     OW13131   0.545   1.867   1.969  0.3691 -0.1399  0.4024
 3340SOL    HW213132   0.586   1.855   1.883 -0.3409 -0.3233  0.0781
 3340SOL    HW313133   0.546   1.961   1.984 -0.1234 -0.0500 -0.1202
 3340SOL    MW413134   0.551   1.878   1.960 -0.2450 -0.1177 -0.1330
 3341SOL     OW13135   3.297   4.633   1.477  0.1639 -0.0414  0.7373
 3341SOL    HW213136   3.363   4.611   1.543  0.9759  0.7734  0.2183
 3341SOL    HW313137   3.297   4.558   1.417  1.5545  0.4931  0.0315
 3341SOL    MW413138   3.306   4.620   1.478  0.0219  0.0273  0.5978
 3342SOL     OW13139   5.459   0.212   0.916 -0.3855  0.0191 -0.9007
 3342SOL    HW213140   5.456   0.180   0.826 -1.2676 -1.1958 -0.4697
 3342SOL    HW313141   5.369   0.235   0.937  0.0386  1.6782 -0.7757
 3342SOL    MW413142   5.447   0.211   0.907 -0.8231 -0.2754 -0.3835
 3343SOL     OW13143   4.715   2.006   3.561 -0.4897  0.2077  0.0280
 3343SOL    HW213144   4.806   2.034   3.548 -0.2054  0.9916  2.9194
 3343SOL    HW313145   4.665   2.088   3.562 -1.0767 -0.1410 -0.4600
 3343SOL    MW413146   4.721   2.021   3.560 -0.0668 -0.2033  0.3626
 3344SOL     OW13147   2.698   2.360   5.768 -0.0700  0.1307  0.1192
 3344SOL    HW213148   2.647   2.358   5.687 -4.3250 -2.7054  2.4481
 3344SOL    HW313149   2.661   2.431   5.819 -1.3467 -1.4794  1.5566
 3344SOL    MW413150   2.687   2.369   5.764  0.0194 -0.6288  0.2927
 3345SOL     OW13151   2.656   5.434   5.287  0.0360 -0.5926 -0.1340
 3345SOL    HW213152   2.679   5.516   5.330  0.3452 -0.9270  0.3450
 3345SOL    HW313153   2.720   5.426   5.216  0.4551 -0.7737  0.2621
 3345SOL    MW413154   2.667   5.444   5.283 -0.4311 -0.3680 -0.2835
 3346SOL     OW13155   6.323   1.547   5.681  0.1562 -0.3739 -0.3856
 3346SOL    HW213156   6.334   1.551   5.776 -3.5181 -1.9940  0.2958
 3346SOL    HW313157   6.274   1.626   5.659 -0.2744 -0.7047 -0.6465
 3346SOL    MW413158   6.318   1.558   5.691  0.1357 -0.6981  0.0035
 3347SOL     OW13159   3.951   4.709   5.008 -0.0937 -0.4613 -0.4299
 3347SOL    HW213160   4.021   4.764   5.044  1.0043 -1.7768 -0.4609
 3347SOL    HW313161   3.953   4.725   4.914 -0.2427 -0.0475 -0.3646
 3347SOL    MW413162   3.961   4.718   5.001 -0.0763 -0.0534  0.2664
 3348SOL     OW13163   0.720   2.497   1.813  0.0633  0.4779 -0.6146
 3348SOL    HW213164   0.627   2.476   1.808  0.3781 -1.2680  0.0184
 3348SOL    HW313165   0.760   2.418   1.849  1.7204  1.4028 -0.3287
 3348SOL    MW413166   0.713   2.483   1.817 -0.5356 -0.7556 -0.2661
 3349SOL     OW13167   3.652   1.032   3.359 -0.2910  0.4258 -0.3442
 3349SOL    HW213168   3.570   1.080   3.345 -0.5923 -0.8016 -3.4055
 3349SOL    HW313169   3.714   1.073   3.299  0.3741 -0.8401 -0.5502
 3349SOL    MW413170   3.649   1.044   3.349 -0.2415 -0.1083 -0.5281
 3350SOL     OW13171   5.635   0.863   6.097 -0.7554  0.2236  0.2402
 3350SOL    HW213172   5.585   0.854   6.016 -0.0431 -2.2907 -0.0052
 3350SOL    HW313173   5.713   0.913   6.072 -0.5730 -0.4646 -0.6337
 3350SOL    MW413174   5.639   0.868   6.083  0.4301 -0.3208 -0.3317
 3351SOL     OW13175   0.952   3.889   0.548  0.3597  0.0092  0.0915
 3351SOL    HW213176   1.019   3.834   0.589 -0.0698  0.5252  1.5257
 3351SOL    HW313177   1.002   3.954   0.499  0.8917 -0.3562  0.1372
 3351SOL    MW413178   0.967   3.890   0.547 -0.1202 -0.2873  0.8548
 3352SOL     OW13179   5.403   0.294   0.093 -0.0788  0.2585 -0.2179
 3352SOL    HW213180   5.495   0.277   0.071 -0.0746 -1.3244  0.8347
 3352SOL    HW313181   5.354   0.249   0.025 -0.0643 -0.3805  0.1881
 3352SOL    MW413182   5.409   0.286   0.081 -0.8743 -0.3176 -0.4213
 3353SOL     OW13183   2.477   3.334   3.956 -0.8750  0.3814  0.1680
 3353SOL    HW213184   2.548   3.294   4.007 -0.9933  0.2281  0.2151
 3353SOL    HW313185   2.522   3.381   3.886 -0.6989  0.8456  0.5871
 3353SOL    MW413186   2.493   3.335   3.954 -0.3296 -0.3562  0.0545
 3354SOL     OW13187   3.564   2.699   0.467  0.0225 -0.4349  0.6528
 3354SOL    HW213188   3.594   2.643   0.396  0.5221  1.5190 -0.7732
 3354SOL    HW313189   3.642   2.711   0.522  0.3362  0.1081  0.0934
 3354SOL    MW413190   3.578   2.693   0.465 -0.1727  0.1143 -0.1236
 3355SOL     OW13191   1.324   6.036   3.218 -0.4666  0.0856 -0.0242
 3355SOL    HW213192   1.394   6.040   3.152 -2.8493 -0.1719 -2.7693
 3355SOL    HW313193   1.356   6.091   3.289  1.3644  2.3071 -2.3518
 3355SOL    MW413194   1.337   6.044   3.219  0.0339 -0.5095 -0.2032
 3356SOL     OW13195   0.271   3.145   4.422  0.3209 -0.6214  0.1657
 3356SOL    HW213196   0.299   3.063   4.463 -2.3457 -1.7425 -0.0207
 3356SOL    HW313197   0.241   3.199   4.495 -2.5685 -1.8484  0.0255
 3356SOL    MW413198   0.271   3.141   4.437 -0.5267  0.2406 -0.0415
 3357SOL     OW13199   6.057   4.059   4.173 -0.1144  0.2716 -0.3393
 3357SOL    HW213200   6.113   3.982   4.166 -1.3837 -0.7041 -0.3319
 3357SOL    HW313201   6.088   4.119   4.105  0.0144 -0.8543 -1.3095
 3357SOL    MW413202   6.068   4.056   4.163  0.2535 -0.3048 -0.8339
 3358SOL     OW13203   3.283   5.239   3.255 -0.5597  0.1162  0.2278
 3358SOL    HW213204   3.333   5.291   3.318  1.2911 -0.9488 -0.3075
 3358SOL    HW313205   3.318   5.150   3.264  0.1175  0.0286 -2.6418
 3358SOL    MW413206   3.294   5.234   3.265 -0.2129 -0.3165 -0.6369
 3359SOL     OW13207   2.869   1.382   5.291  0.7648 -0.0439 -0.2012
 3359SOL    HW213208   2.904   1.399   5.378  0.2966 -0.9587  0.1747
 3359SOL    HW313209   2.921   1.438   5.233  1.4589  0.1492  0.5934
 3359SOL    MW413210   2.880   1.392   5.295 -0.2801 -0.6939  0.1265
 3360SOL     OW13211   2.780   3.535   1.911  0.0885  0.4972  0.6383
 3360SOL    HW213212   2.705   3.594   1.911  0.8967  1.5619  0.3616
 3360SOL    HW313213   2.742   3.447   1.899 -1.0352  1.1066 -0.4888
 3360SOL    MW413214   2.765   3.531   1.909 -0.5577  0.5193  0.0900
 3361SOL     OW13215   3.354   3.296   3.360  0.7363 -0.5343 -0.0331
 3361SOL    HW213216   3.450   3.304   3.359  0.6982 -0.0418 -0.4884
 3361SOL    HW313217   3.326   3.345   3.283  0.1365 -0.9742 -0.0953
 3361SOL    MW413218   3.363   3.303   3.350  0.0249 -0.0695 -0.0933
 3362SOL     OW13219   5.020   0.109   4.012 -0.0706  0.5569 -0.4736
 3362SOL    HW213220   5.017   0.193   4.057 -0.1129  0.8701 -1.0456
 3362SOL    HW313221   5.084   0.057   4.060 -2.4005 -0.3110  1.9593
 3362SOL    MW413222   5.028   0.113   4.024 -0.4113 -0.3569  0.1690
 3363SOL     OW13223   1.651   2.472   3.290 -0.6088  0.0029 -0.3231
 3363SOL    HW213224   1.617   2.550   3.247 -0.5401  0.6452  0.7540
 3363SOL    HW313225   1.632   2.401   3.228 -1.0539  0.7961 -1.1323
 3363SOL    MW413226   1.644   2.473   3.276  0.0176  0.8297 -1.0183
 3364SOL     OW13227   3.212   0.527   1.350 -0.4432 -0.3933 -0.5001
 3364SOL    HW213228   3.121   0.554   1.361 -0.5085 -0.8714  0.1893
 3364SOL    HW313229   3.238   0.562   1.265 -1.6712 -1.3462 -1.2927
 3364SOL    MW413230   3.204   0.535   1.340  0.6614  0.0344 -0.1775
 3365SOL     OW13231   1.400   2.083   1.919  0.0804  0.4080 -0.7915
 3365SOL    HW213232   1.369   2.006   1.871 -1.3717  1.0620 -0.9569
 3365SOL    HW313233   1.491   2.063   1.940 -0.4985 -1.7321 -0.0436
 3365SOL    MW413234   1.408   2.070   1.915 -0.1951  0.1403 -0.2307
 3366SOL     OW13235   5.646   6.201   2.344 -0.1975 -0.3980 -0.3119
 3366SOL    HW213236   5.557   6.186   2.312 -0.2899 -0.0814 -0.2085
 3366SOL    HW313237   5.652   6.147   2.423 -0.8167  0.7485  0.5450
 3366SOL    MW413238   5.635   6.192   2.350  0.0108  0.2173 -0.1920
 3367SOL     OW13239   4.902   3.141   0.882 -0.5626  0.1415 -0.7966
 3367SOL    HW213240   4.904   3.152   0.977 -0.1199  0.3951 -0.8329
 3367SOL    HW313241   4.810   3.122   0.863 -0.5078 -0.7625 -0.2343
 3367SOL    MW413242   4.890   3.140   0.892  0.4376  0.2155  0.0770
 3368SOL     OW13243   1.265   2.500   1.395  0.0619 -0.0820 -0.1257
 3368SOL    HW213244   1.347   2.520   1.440  0.3930 -2.4263  0.4316
 3368SOL    HW313245   1.289   2.501   1.302  0.4930  0.1860 -0.0176
 3368SOL    MW413246   1.279   2.503   1.388 -0.6484 -0.4345  0.1260
 3369SOL     OW13247   3.513   4.214   2.354 -0.2209  0.6293 -0.0600
 3369SOL    HW213248   3.455   4.280   2.391 -2.0596  0.8792 -3.0703
 3369SOL    HW313249   3.462   4.133   2.355  0.5249  0.1489  0.0209
 3369SOL    MW413250   3.499   4.212   2.359 -0.9258  0.1200  0.2320
 3370SOL     OW13251   3.523   5.919   6.182 -0.5548 -0.4315 -0.2490
 3370SOL    HW213252   3.569   5.836   6.198  0.5231 -0.1564 -1.6879
 3370SOL    HW313253   3.449   5.918   6.243 -0.0827 -2.0609  0.3475
 3370SOL    MW413254   3.520   5.908   6.192  0.1289  0.5239 -0.5365
 3371SOL     OW13255   3.121   3.597   4.080  0.3148  0.0656  0.3719
 3371SOL    HW213256   3.110   3.559   3.993  1.3922 -0.3945  0.4249
 3371SOL    HW313257   3.085   3.686   4.072 -0.8298 -0.4316 -0.1626
 3371SOL    MW413258   3.115   3.604   4.068  0.3844  0.2003 -0.4391
 3372SOL     OW13259   2.259   1.097   1.021  0.5711 -0.6729 -0.6520
 3372SOL    HW213260   2.196   1.039   1.064  0.5324 -2.4338 -2.9246
 3372SOL    HW313261   2.219   1.183   1.026 -0.2091 -1.0872  1.2497
 3372SOL    MW413262   2.245   1.101   1.027 -0.0717 -0.4616 -0.4953
 3373SOL     OW13263   4.533   3.145   6.226  0.2996 -0.4120 -0.4057
 3373SOL    HW213264   4.555   3.060   6.188 -1.6098 -0.3254 -1.8223
 3373SOL    HW313265   4.592   3.207   6.183  2.3480 -1.0586  1.3016
 3373SOL    MW413266   4.544   3.142   6.215 -0.5839  0.5215 -0.1776
 3374SOL     OW13267   4.431   1.930   3.442  0.3384 -0.0414 -0.0661
 3374SOL    HW213268   4.440   1.998   3.375  1.7030 -1.6166 -1.6279
 3374SOL    HW313269   4.382   1.971   3.513  1.3439  2.6216 -0.7889
 3374SOL    MW413270   4.426   1.944   3.442  0.2172  0.1107 -0.1618
 3375SOL     OW13271   1.568   5.193   2.377  0.4052  0.2920  0.5206
 3375SOL    HW213272   1.483   5.160   2.406  0.6788 -0.0645  0.9313
 3375SOL    HW313273   1.611   5.223   2.457  0.0775  1.8707  0.1306
 3375SOL    MW413274   1.562   5.192   2.392  0.2708  0.3246 -0.4914
 3376SOL     OW13275   0.229   0.189   2.313  0.0011  0.3315 -0.5420
 3376SOL    HW213276   0.320   0.166   2.294  0.4173  0.9789  0.5912
 3376SOL    HW313277   0.235   0.261   2.375 -1.2811 -0.8220  0.9831
 3376SOL    MW413278   0.242   0.195   2.318  0.0767  0.2575  0.0872
 3377SOL     OW13279   0.402   1.894   5.404  0.2271 -0.2867  0.2072
 3377SOL    HW213280   0.422   1.911   5.496 -0.1053  1.4874 -0.0125
 3377SOL    HW313281   0.360   1.808   5.404  1.7674 -1.1009  1.4790
 3377SOL    MW413282   0.399   1.885   5.416  0.2193 -0.7744  0.5453
 3378SOL     OW13283   0.089   0.480   5.600  0.0797 -0.6159  0.6555
 3378SOL    HW213284   0.110   0.446   5.687 -1.0790  0.3956  1.3596
 3378SOL    HW313285   0.125   0.568   5.598  0.7620 -0.8949 -0.1918
 3378SOL    MW413286   0.096   0.487   5.611  0.3842 -0.8189  0.1071
 3379SOL     OW13287   0.820   3.093   4.996  0.1599 -0.6088  0.0320
 3379SOL    HW213288   0.810   3.013   4.945  0.5640 -0.3569 -0.4484
 3379SOL    HW313289   0.908   3.124   4.977  0.4661 -0.7161  1.1955
 3379SOL    MW413290   0.830   3.087   4.987 -0.7983 -0.5028 -1.2559
 3380SOL     OW13291   0.712   0.409   4.291 -0.4511 -0.2122 -0.2259
 3380SOL    HW213292   0.641   0.413   4.355 -0.7374 -3.1657 -0.2539
 3380SOL    HW313293   0.785   0.370   4.338 -0.5864 -2.1976 -1.5321
 3380SOL    MW413294   0.712   0.405   4.306  0.5034 -0.0754  0.2722
 3381SOL     OW13295   2.444   2.697   3.990  0.8884  0.1760 -0.3403
 3381SOL    HW213296   2.483   2.773   3.947  1.1899  0.1352 -0.1448
 3381SOL    HW313297   2.515   2.633   3.995  1.6294  1.0718  2.4477
 3381SOL    MW413298   2.459   2.699   3.985  0.4235  0.0833  0.4385
 3382SOL     OW13299   2.063   2.339   2.337 -0.2742  0.0322  0.0820
 3382SOL    HW213300   2.054   2.316   2.429 -0.3425  0.1868  0.1161
 3382SOL    HW313301   1.973   2.348   2.305 -0.2512 -0.0134  0.0031
 3382SOL    MW413302   2.050   2.337   2.345 -0.0761 -0.1892 -0.2278
 3383SOL     OW13303   2.103   1.506   2.902  0.1294  0.7520 -0.3862
 3383SOL    HW213304   2.115   1.557   2.822  0.8227  1.0336 -0.1063
 3383SOL    HW313305   2.118   1.415   2.875 -2.4209  0.4826 -1.1874
 3383SOL    MW413306   2.106   1.501   2.888 -0.5376 -0.2753 -0.0778
 3384SOL     OW13307   5.753   5.752   1.600 -0.8144  0.0096  0.4792
 3384SOL    HW213308   5.736   5.815   1.670  0.2215  0.6576  0.1646
 3384SOL    HW313309   5.702   5.785   1.526  1.7348  2.0623 -0.5215
 3384SOL    MW413310   5.744   5.764   1.599  0.0558 -0.0815 -0.4424
 3385SOL     OW13311   0.301   2.746   1.239 -0.0235 -0.7475  0.2246
 3385SOL    HW213312   0.219   2.703   1.263 -0.6134  0.3875  0.3505
 3385SOL    HW313313   0.289   2.771   1.147 -0.0405 -0.1161  0.3926
 3385SOL    MW413314   0.288   2.744   1.230  0.5627 -0.3228 -0.2225
 3386SOL     OW13315   0.748   1.174   5.673  0.2188  0.5634 -0.0406
 3386SOL    HW213316   0.693   1.146   5.601  0.9738  1.5219 -1.0260
 3386SOL    HW313317   0.825   1.213   5.631  0.2187  2.0826  1.2480
 3386SOL    MW413318   0.751   1.175   5.658  0.0895 -0.3067 -0.1271
 3387SOL     OW13319   1.147   0.221   3.380  0.0858  0.1600 -0.1379
 3387SOL    HW213320   1.131   0.193   3.470 -0.3367 -0.9305 -0.5346
 3387SOL    HW313321   1.156   0.316   3.385  1.6916 -0.0255  1.2827
 3387SOL    MW413322   1.146   0.230   3.392 -0.4289  0.3553 -0.1928
 3388SOL     OW13323   0.310   2.754   2.479 -0.0921  0.3994 -0.0848
 3388SOL    HW213324   0.289   2.661   2.465 -0.5718  0.2429  1.4943
 3388SOL    HW313325   0.380   2.753   2.544  1.3287  1.1126 -1.5290
 3388SOL    MW413326   0.316   2.741   2.486 -0.3804  0.2364  0.0170
 3389SOL     OW13327   2.445   0.836   6.091  0.5547  0.1429 -0.4854
 3389SOL    HW213328   2.437   0.780   6.014  1.9314 -1.1118  0.2495
 3389SOL    HW313329   2.511   0.901   6.067  0.9929 -0.2557 -0.3568
 3389SOL    MW413330   2.452   0.837   6.077  0.4576  0.4043  0.2816
 3390SOL     OW13331   3.140   4.572   6.028  0.0447  0.1706  0.4181
 3390SOL    HW213332   3.120   4.547   6.118 -2.4783 -0.1627 -0.1591
 3390SOL    HW313333   3.147   4.489   5.981  1.9737  0.3165  0.3614
 3390SOL    MW413334   3.138   4.558   6.033 -0.2042  0.0839 -0.4859
 3391SOL     OW13335   3.142   4.090   3.458 -0.2134  0.3584  0.0383
 3391SOL    HW213336   3.136   4.139   3.539  0.6456  1.1921 -0.3879
 3391SOL    HW313337   3.231   4.056   3.456 -0.4819 -0.3467 -0.1683
 3391SOL    MW413338   3.153   4.092   3.468 -0.1536 -0.4758 -0.0005
 3392SOL     OW13339   3.189   6.013   5.595 -0.2211  0.2205  0.5457
 3392SOL    HW213340   3.247   6.047   5.527 -0.2876 -0.0583  0.3449
 3392SOL    HW313341   3.182   5.919   5.575  0.1163  0.0467  1.2012
 3392SOL    MW413342   3.196   6.005   5.584  0.4969 -0.7314  0.2979
 3393SOL     OW13343   3.850   2.512   6.102  0.5118 -0.0366 -0.4241
 3393SOL    HW213344   3.848   2.419   6.081  0.3674 -0.4318  1.1933
 3393SOL    HW313345   3.773   2.525   6.158  0.4695  1.0861 -0.7318
 3393SOL    MW413346   3.840   2.501   6.107  0.3877 -0.3039 -0.5441
 3394SOL     OW13347   4.437   0.863   5.818  0.1176  0.0313  0.0834
 3394SOL    HW213348   4.446   0.838   5.910 -2.1094 -0.5956  0.1949
 3394SOL    HW313349   4.373   0.800   5.783  0.7679  0.3954 -1.8423
 3394SOL    MW413350   4.430   0.851   5.826  0.0081 -0.5153 -0.1450
 3395SOL     OW13351   2.330   3.860   4.813 -0.1661  0.1834 -0.2762
 3395SOL    HW213352   2.281   3.897   4.886  1.5704  0.8677  0.6238
 3395SOL    HW313353   2.264   3.830   4.751 -1.6829  0.2259  1.2584
 3395SOL    MW413354   2.315   3.861   4.814  0.6005  0.1502 -0.2306
 3396SOL     OW13355   0.136   4.603   0.801  0.3590 -0.0063  0.1536
 3396SOL    HW213356   0.160   4.680   0.853  0.6057  0.4133 -0.5674
 3396SOL    HW313357   0.171   4.529   0.850 -2.8517 -0.0695  2.7489
 3396SOL    MW413358   0.144   4.604   0.814 -0.4650 -0.1814 -0.5569
 3397SOL     OW13359   1.577   0.401   4.590 -0.4145  0.2097  0.3022
 3397SOL    HW213360   1.574   0.393   4.686 -2.5453 -1.5205  0.1583
 3397SOL    HW313361   1.525   0.480   4.572 -1.4082 -0.3808  0.5145
 3397SOL    MW413362   1.570   0.411   4.601  0.2831  0.1862 -0.4293
 3398SOL     OW13363   4.459   4.827   3.823 -0.4959 -0.1528  0.1415
 3398SOL    HW213364   4.448   4.761   3.755  1.1008  0.1078 -0.4098
 3398SOL    HW313365   4.493   4.779   3.898  2.1791  0.2102 -0.7579
 3398SOL    MW413366   4.462   4.812   3.824  0.0536  0.3820 -0.7395
 3399SOL     OW13367   3.721   4.600   3.993 -0.0014  0.2575 -0.3245
 3399SOL    HW213368   3.723   4.661   4.067 -1.2845  1.0777 -0.9272
 3399SOL    HW313369   3.711   4.514   4.034 -1.7072  0.7868  0.4649
 3399SOL    MW413370   3.720   4.596   4.008 -0.1382 -0.1639 -0.1254
 3400SOL     OW13371   5.783   4.921   2.640 -0.0835 -0.0910  0.1630
 3400SOL    HW213372   5.697   4.920   2.597  0.0306 -0.9180 -0.0662
 3400SOL    HW313373   5.817   4.832   2.626  1.3156  0.5560 -0.7865
 3400SOL    MW413374   5.776   4.909   2.632  0.7166 -0.5697 -0.0635
 3401SOL     OW13375   3.339   2.288   5.649 -0.3973  0.1459 -0.1895
 3401SOL    HW213376   3.281   2.350   5.606  0.1462  0.4475 -0.5039
 3401SOL    HW313377   3.316   2.293   5.742 -0.3171  0.8654 -0.2041
 3401SOL    MW413378   3.329   2.297   5.656 -0.1070 -1.0107  0.3029
 3402SOL     OW13379   4.772   0.721   5.196  0.8980  0.4874 -0.2285
 3402SOL    HW213380   4.842   0.743   5.135  0.5199 -0.0622 -0.8864
 3402SOL    HW313381   4.816   0.706   5.280  1.5039  0.6344 -0.5177
 3402SOL    MW413382   4.787   0.722   5.199  0.5408  0.1069 -0.3534
 3403SOL     OW13383   5.884   1.981   0.364  0.7245 -0.0359  0.2812
 3403SOL    HW213384   5.819   2.007   0.299 -1.3369  0.2622  2.3226
 3403SOL    HW313385   5.934   1.911   0.321 -1.2263 -0.5857 -1.2583
 3403SOL    MW413386   5.882   1.975   0.349  0.1975  0.0283 -0.4186
 3404SOL     OW13387   4.880   2.722   5.240 -0.2099 -0.1288  0.8141
 3404SOL    HW213388   4.866   2.807   5.199 -1.3949 -0.5673  0.2390
 3404SOL    HW313389   4.963   2.730   5.287 -0.2609  1.2994  0.6865
 3404SOL    MW413390   4.889   2.734   5.241 -0.1333  0.4335 -0.0182
 3405SOL     OW13391   3.271   3.658   2.581  0.3873 -0.1661 -0.6968
 3405SOL    HW213392   3.277   3.753   2.582  0.5804 -0.1853  0.0675
 3405SOL    HW313393   3.346   3.630   2.529  1.0940  0.0434  0.1956
 3405SOL    MW413394   3.282   3.667   2.574  0.3576  0.0559 -0.0474
 3406SOL     OW13395   0.865   0.035   1.160  0.3931 -0.4440 -0.6485
 3406SOL    HW213396   0.772   0.056   1.155  0.4523  0.0338  0.1107
 3406SOL    HW313397   0.868  -0.049   1.206  0.2180 -1.7235 -2.8083
 3406SOL    MW413398   0.853   0.026   1.165  0.0636  0.4851 -0.8269
 3407SOL     OW13399   0.662   6.122   2.646  0.2517 -0.4645 -0.3185
 3407SOL    HW213400   0.670   6.027   2.632  2.4565 -0.4547  0.4256
 3407SOL    HW313401   0.613   6.153   2.570 -2.8009 -2.4638  0.6350
 3407SOL    MW413402   0.657   6.114   2.634  0.1326  0.2084  0.2231
 3408SOL     OW13403   0.287   3.870   5.261 -0.0962  0.0296 -0.2319
 3408SOL    HW213404   0.271   3.961   5.285 -0.1961 -0.3945  1.3747
 3408SOL    HW313405   0.214   3.847   5.203  1.0835  1.5909 -2.5211
 3408SOL    MW413406   0.276   3.879   5.256 -0.2098  0.0002 -0.3514
 3409SOL     OW13407   0.754   5.742   3.620  0.4477  0.3957  0.3640
 3409SOL    HW213408   0.680   5.802   3.633  1.3119  1.8075 -0.9254
 3409SOL    HW313409   0.824   5.797   3.587  1.2763 -1.3533 -0.9667
 3409SOL    MW413410   0.754   5.757   3.617  0.2599 -0.1725  0.4715
 3410SOL     OW13411   0.932   4.776   1.365  0.0009  0.0441 -0.2301
 3410SOL    HW213412   0.976   4.693   1.348 -0.6488 -0.5402  0.8463
 3410SOL    HW313413   1.003   4.839   1.377  0.5176 -0.5371 -0.1741
 3410SOL    MW413414   0.947   4.774   1.364  0.7417 -0.2835  0.3619
 3411SOL     OW13415   3.332   2.351   5.918 -0.3251 -0.1967  0.2338
 3411SOL    HW213416   3.367   2.440   5.916  0.7131 -0.5969 -0.7220
 3411SOL    HW313417   3.248   2.359   5.963 -0.0626  1.1891  0.5285
 3411SOL    MW413418   3.326   2.364   5.924  0.5533 -0.2432  0.3261
 3412SOL     OW13419   0.543   6.210   5.496 -0.4423 -0.1783  0.8122
 3412SOL    HW213420   0.590   6.223   5.578  1.9900  2.1715 -0.7812
 3412SOL    HW313421   0.459   6.253   5.510 -1.4637 -2.6309  3.0392
 3412SOL    MW413422   0.538   6.217   5.509 -0.0974 -0.3721  0.4223
 3413SOL     OW13423   1.990   4.072   0.123  0.0199 -0.0979 -0.1206
 3413SOL    HW213424   1.933   4.108   0.055 -0.4297  0.0226  0.3179
 3413SOL    HW313425   1.959   3.982   0.135  1.3169 -0.7681 -1.4138
 3413SOL    MW413426   1.979   4.065   0.116 -0.3365 -0.0516  0.4269
 3414SOL     OW13427   2.477   1.659   3.741 -0.4854 -0.2177  0.1146
 3414SOL    HW213428   2.528   1.737   3.761 -1.3255  0.0628  1.2765
 3414SOL    HW313429   2.524   1.588   3.785 -2.6055  0.4699  3.9268
 3414SOL    MW413430   2.490   1.660   3.750 -0.0500  0.3471  0.1783
 3415SOL     OW13431   4.538   6.016   0.006  0.4354 -0.0172  0.2702
 3415SOL    HW213432   4.578   6.082  -0.050  2.1301 -1.0027  0.2765
 3415SOL    HW313433   4.561   6.042   0.095 -1.1228  0.7959  0.4825
 3415SOL    MW413434   4.546   6.028   0.011  0.3083  0.9662 -0.1321
 3416SOL     OW13435   3.797   2.621   2.301 -0.0581  0.0279  0.0272
 3416SOL    HW213436   3.871   2.568   2.329  1.3989  2.1846  0.4600
 3416SOL    HW313437   3.743   2.629   2.380 -0.2710 -0.7154 -0.0290
 3416SOL    MW413438   3.799   2.615   2.315  0.6238  0.3597  0.2268
 3417SOL     OW13439   1.527   0.315   4.252 -0.3573 -0.0699  0.2325
 3417SOL    HW213440   1.580   0.394   4.268 -1.0692  0.3113  0.7534
 3417SOL    HW313441   1.502   0.285   4.339  1.0770 -1.7076  0.1311
 3417SOL    MW413442   1.531   0.322   4.265 -0.7721 -0.2034 -0.1513
 3418SOL     OW13443   0.571   2.589   3.024  0.2750 -0.2210  0.5439
 3418SOL    HW213444   0.608   2.583   3.112 -0.4268  0.1741  0.8776
 3418SOL    HW313445   0.618   2.523   2.974 -0.5437 -1.7250  1.6673
 3418SOL    MW413446   0.582   2.579   3.029  0.4809  0.1851 -0.3486
 3419SOL     OW13447   1.691   3.223   5.470  0.1899 -0.2572  0.2908
 3419SOL    HW213448   1.695   3.305   5.422  0.0670  0.6962  1.8393
 3419SOL    HW313449   1.658   3.247   5.557 -0.4336 -2.0344  0.5886
 3419SOL    MW413450   1.688   3.237   5.475 -0.1231 -0.0083  0.1534
 3420SOL     OW13451   5.183   1.207   0.344  0.4915 -0.4582 -0.6289
 3420SOL    HW213452   5.240   1.279   0.371 -1.8930  0.1491  3.8776
 3420SOL    HW313453   5.107   1.250   0.304 -0.3419 -0.4581  0.8694
 3420SOL    MW413454   5.180   1.222   0.343  0.7188 -0.3253  0.0974
 3421SOL     OW13455   4.496   1.270   2.431  0.4058 -0.2629 -0.2468
 3421SOL    HW213456   4.431   1.216   2.387  0.5521 -0.6183 -0.0307
 3421SOL    HW313457   4.491   1.355   2.387  1.1560 -0.8618 -1.5380
 3421SOL    MW413458   4.487   1.274   2.420 -0.0860  0.1042  0.3718
 3422SOL     OW13459   5.794   6.184   6.351 -0.4453 -0.0910 -0.3029
 3422SOL    HW213460   5.855   6.118   6.318 -1.1756 -2.1791  2.1919
 3422SOL    HW313461   5.849   6.258   6.376  0.9583 -1.3918  0.6292
 3422SOL    MW413462   5.809   6.185   6.350  0.3273 -0.1533  0.2894
 3423SOL     OW13463   3.919   2.492   1.519 -0.4311  0.0733 -0.4108
 3423SOL    HW213464   3.967   2.421   1.562 -0.4439 -1.2860 -2.5118
 3423SOL    HW313465   3.978   2.567   1.524 -0.6989  0.1892  2.4691
 3423SOL    MW413466   3.933   2.493   1.525  0.2091 -0.0735  0.4619
 3424SOL     OW13467   3.288   1.205   3.675 -0.0995  0.4577  0.0979
 3424SOL    HW213468   3.310   1.258   3.598  0.5349  0.4053  0.2357
 3424SOL    HW313469   3.302   1.115   3.647 -1.2831  0.3453 -0.1698
 3424SOL    MW413470   3.293   1.200   3.661 -0.3110 -0.2705  0.8615
 3425SOL     OW13471   5.239   0.757   3.279  0.6944 -0.0402 -0.0010
 3425SOL    HW213472   5.187   0.831   3.312 -0.9809 -0.5824 -1.2816
 3425SOL    HW313473   5.255   0.703   3.356  1.1335  1.1501  0.7841
 3425SOL    MW413474   5.234   0.760   3.293  0.8594 -0.5253 -0.2490
 3426SOL     OW13475   1.640   0.303   5.282 -0.2205  0.0188  1.1712
 3426SOL    HW213476   1.604   0.389   5.302 -0.8189 -0.0223  0.3621
 3426SOL    HW313477   1.563   0.249   5.262  0.2132 -0.3395  0.3871
 3426SOL    MW413478   1.625   0.307   5.282  0.5762  0.0657  0.2611
 3427SOL     OW13479   4.884   4.317   2.611  0.0201 -0.2449 -0.2563
 3427SOL    HW213480   4.968   4.275   2.628  0.6659  1.7112  1.9337
 3427SOL    HW313481   4.841   4.321   2.696 -1.0277  1.3402 -0.7995
 3427SOL    MW413482   4.890   4.312   2.624 -0.2655  0.6423  0.0124
 3428SOL     OW13483   0.386   2.807   1.706  0.1602 -0.6165 -0.6015
 3428SOL    HW213484   0.299   2.814   1.667 -0.6387 -2.0444  0.8131
 3428SOL    HW313485   0.442   2.778   1.634 -0.2112  1.5757 -1.8565
 3428SOL    MW413486   0.382   2.804   1.691 -0.1235  0.5035  0.1863
 3429SOL     OW13487   0.790   4.987   6.152 -0.6071 -0.1357  0.0819
 3429SOL    HW213488   0.880   4.975   6.121  0.3038 -0.6684  2.6975
 3429SOL    HW313489   0.740   4.921   6.104  0.7796 -1.1885  0.0020
 3429SOL    MW413490   0.795   4.977   6.142 -0.5151 -0.5503 -0.6521
 3430SOL     OW13491   2.243   3.043   4.568 -0.3403 -0.1375  0.2111
 3430SOL    HW213492   2.234   3.074   4.478 -1.3511  2.5975  1.1600
 3430SOL    HW313493   2.162   2.997   4.586 -0.6723  0.3844  0.0805
 3430SOL    MW413494   2.231   3.041   4.558  0.2919  0.3567 -0.1972
 3431SOL     OW13495   5.394   6.135   2.253 -0.0104 -0.3366 -0.1497
 3431SOL    HW213496   5.331   6.072   2.287  1.8654 -2.8375 -1.0118
 3431SOL    HW313497   5.395   6.120   2.159 -1.0739  2.6119 -0.7613
 3431SOL    MW413498   5.386   6.125   2.245  0.2775  0.0582  0.2276
 3432SOL     OW13499   5.165   5.986   2.356  0.8094 -0.1472  0.8304
 3432SOL    HW213500   5.146   5.991   2.450 -1.3632 -0.8825  0.4911
 3432SOL    HW313501   5.241   5.930   2.350 -0.4784 -2.1507  2.0573
 3432SOL    MW413502   5.172   5.980   2.368  0.3386 -0.3947  0.1436
 3433SOL     OW13503   1.142   0.833   5.829 -0.3780 -0.2850 -0.1211
 3433SOL    HW213504   1.115   0.863   5.916 -3.2739  2.0610 -1.6298
 3433SOL    HW313505   1.180   0.911   5.788  0.1393 -1.1116 -1.2572
 3433SOL    MW413506   1.144   0.847   5.835  0.3951 -0.7298 -0.0530
 3434SOL     OW13507   6.413   0.170   4.580 -0.1579  0.4774  0.2930
 3434SOL    HW213508   6.488   0.114   4.559  0.1867  0.7207  0.8309
 3434SOL    HW313509   6.452   0.251   4.614 -0.6430  1.1314 -0.6568
 3434SOL    MW413510   6.428   0.174   4.582 -0.6002 -0.7976 -0.9696
 3435SOL     OW13511   4.281   2.258   3.012  0.1601 -0.2217 -0.3500
 3435SOL    HW213512   4.189   2.268   3.036 -1.0590 -2.7768 -3.2975
 3435SOL    HW313513   4.315   2.347   3.009 -1.9927  0.7537  1.4453
 3435SOL    MW413514   4.273   2.271   3.015  0.0071 -0.2382 -0.1875
 3436SOL     OW13515   4.588   0.733   3.624 -0.0420 -0.3328 -0.4909
 3436SOL    HW213516   4.671   0.743   3.578  0.2152 -0.4644 -0.0616
 3436SOL    HW313517   4.571   0.638   3.622  1.1190 -0.6638  1.6283
 3436SOL    MW413518   4.597   0.721   3.618  0.1075 -0.2093  0.2210
 3437SOL     OW13519   4.057   6.389   5.819  0.3286  0.0397  0.1406
 3437SOL    HW213520   4.058   6.445   5.742 -0.3964 -1.0237 -0.6701
 3437SOL    HW313521   4.143   6.347   5.820  0.0070 -0.6520 -0.6366
 3437SOL    MW413522   4.069   6.391   5.809  0.1430  0.3409 -0.0949
 3438SOL     OW13523   4.723   4.069   1.973  0.7909 -0.2076  0.5185
 3438SOL    HW213524   4.750   3.979   1.990  0.4375 -0.5154 -0.4681
 3438SOL    HW313525   4.643   4.060   1.920  1.0490  0.6805 -0.0295
 3438SOL    MW413526   4.716   4.056   1.968 -0.5407 -0.4767  0.1374
 3439SOL     OW13527   5.731   0.468   3.168  0.1353  0.1669 -0.0587
 3439SOL    HW213528   5.729   0.374   3.186  0.2069  0.0355 -0.7208
 3439SOL    HW313529   5.741   0.508   3.254  2.2933 -0.5135  0.0534
 3439SOL    MW413530   5.732   0.461   3.181 -0.3473 -0.2131  0.4907
 3440SOL     OW13531   4.113   2.633   4.814  0.0118  0.0122  0.5225
 3440SOL    HW213532   4.141   2.679   4.735 -0.9907  1.3864  0.9313
 3440SOL    HW313533   4.087   2.702   4.875 -1.5434 -1.0773  1.1778
 3440SOL    MW413534   4.113   2.648   4.812  0.3052  0.1093 -0.0158
 3441SOL     OW13535   2.629   5.341   6.290  0.1176  0.0587  0.2231
 3441SOL    HW213536   2.538   5.325   6.317 -0.1916  1.6762  0.2570
 3441SOL    HW313537   2.682   5.305   6.360 -0.5754  0.9236  1.2260
 3441SOL    MW413538   2.624   5.334   6.303  0.2494  0.2593 -0.0137
 3442SOL     OW13539   2.877   1.343   6.023  0.5755 -0.5964 -0.0760
 3442SOL    HW213540   2.940   1.280   6.057  2.6410  0.5617 -1.5466
 3442SOL    HW313541   2.822   1.293   5.963  0.2389 -1.5594  1.0041
 3442SOL    MW413542   2.878   1.328   6.020 -0.2147 -0.2171  0.7063
 3443SOL     OW13543   5.959   3.291   5.530 -0.2123 -0.0918  0.2640
 3443SOL    HW213544   6.022   3.244   5.585  0.0993 -0.6633 -0.5635
 3443SOL    HW313545   6.010   3.358   5.486 -0.5943  0.8200  1.1796
 3443SOL    MW413546   5.974   3.294   5.531  0.0115 -0.1462  0.6886
 3444SOL     OW13547   2.167   1.624   3.381  0.0536 -0.1045  0.5183
 3444SOL    HW213548   2.129   1.706   3.411 -1.0996 -0.5078  0.1796
 3444SOL    HW313549   2.240   1.650   3.325  0.3527  0.6674  1.2455
 3444SOL    MW413550   2.172   1.638   3.378  0.7271  0.1414 -0.1239
 3445SOL     OW13551   2.391   0.990   5.287  0.0449 -0.6117  0.0924
 3445SOL    HW213552   2.458   0.999   5.220  0.8267 -0.7608  0.8383
 3445SOL    HW313553   2.386   1.076   5.329  0.6013 -0.9076  0.7929
 3445SOL    MW413554   2.399   1.002   5.284  1.0388  1.4478 -1.0985
 3446SOL     OW13555   3.197   4.985   4.698 -0.0758 -0.4808 -0.2015
 3446SOL    HW213556   3.203   4.993   4.794 -0.8031  2.4401 -0.2982
 3446SOL    HW313557   3.288   4.989   4.668  0.0593  1.2673  0.3030
 3446SOL    MW413558   3.210   4.987   4.707 -0.0300 -0.1991 -0.0046
 3447SOL     OW13559   0.284   1.902   0.365  0.4332 -0.1042  0.6388
 3447SOL    HW213560   0.277   1.808   0.382  0.1477 -0.1647  0.2199
 3447SOL    HW313561   0.358   1.910   0.305  1.7705  0.1619  2.2609
 3447SOL    MW413562   0.293   1.891   0.359 -0.2748 -0.1667 -0.1239
 3448SOL     OW13563   4.080   5.872   2.047  0.2824 -0.2929 -0.0041
 3448SOL    HW213564   4.075   5.958   2.090 -0.7799  0.1488 -0.9795
 3448SOL    HW313565   4.010   5.821   2.088 -2.1449  0.7701 -2.4742
 3448SOL    MW413566   4.070   5.876   2.058 -0.1384  0.3602 -0.2716
 3449SOL     OW13567   5.480   6.143   0.280  0.6935  0.8001 -0.5949
 3449SOL    HW213568   5.555   6.202   0.271  0.0901  1.8421  0.8539
 3449SOL    HW313569   5.421   6.168   0.209  1.0726  0.9820 -0.8482
 3449SOL    MW413570   5.482   6.154   0.270 -0.1090  0.0507 -0.4313
 3450SOL     OW13571   3.796   5.383   5.846  0.2416  0.3258  0.1079
 3450SOL    HW213572   3.869   5.322   5.845 -0.2796 -0.3060  0.0186
 3450SOL    HW313573   3.732   5.345   5.786 -0.9104 -0.0718  1.5351
 3450SOL    MW413574   3.797   5.370   5.838  0.2047  0.0912  0.3822
 3451SOL     OW13575   4.156   1.825   3.665  0.8526 -0.5185 -0.0107
 3451SOL    HW213576   4.210   1.900   3.639  0.6815 -0.6458 -0.7508
 3451SOL    HW313577   4.187   1.802   3.752  0.3048  0.9843  0.6152
 3451SOL    MW413578   4.167   1.832   3.673 -0.1092 -0.3105 -0.2467
 3452SOL     OW13579   1.817   0.483   1.855 -0.0349 -0.8860 -0.1606
 3452SOL    HW213580   1.869   0.555   1.891  0.2601 -0.3346 -1.6401
 3452SOL    HW313581   1.831   0.487   1.761 -0.6529 -2.3984 -0.3511
 3452SOL    MW413582   1.826   0.493   1.848  0.1161  0.0191 -1.0917
 3453SOL     OW13583   5.891   0.455   3.717  0.2527 -0.2387  0.9061
 3453SOL    HW213584   5.979   0.481   3.744  0.2270  0.4205  0.4156
 3453SOL    HW313585   5.899   0.363   3.695  1.0982  0.0583 -0.1658
 3453SOL    MW413586   5.904   0.447   3.717  0.6346 -0.4826  0.6951
 3454SOL     OW13587   1.362   1.366   3.426  0.1796 -0.0103 -0.2637
 3454SOL    HW213588   1.281   1.415   3.443 -0.2969 -0.6653 -0.6137
 3454SOL    HW313589   1.400   1.354   3.513 -0.0173  0.4363 -0.1106
 3454SOL    MW413590   1.356   1.371   3.440 -0.3491 -0.1807  0.2685
 3455SOL     OW13591   6.154   6.000   3.797 -0.2267 -0.4439 -0.3755
 3455SOL    HW213592   6.225   5.977   3.737  1.1901 -0.7887  1.3306
 3455SOL    HW313593   6.168   6.093   3.815 -0.4502 -0.4174 -0.3466
 3455SOL    MW413594   6.165   6.009   3.791 -0.4122 -0.1313 -0.3189
 3456SOL     OW13595   3.978   3.707   5.777  0.1164  0.1930  0.0220
 3456SOL    HW213596   3.980   3.751   5.692 -0.3284 -0.1968 -0.1929
 3456SOL    HW313597   3.887   3.715   5.806  0.3730  0.7906  0.7160
 3456SOL    MW413598   3.966   3.714   5.770 -0.0535 -1.0518  0.3031
 3457SOL     OW13599   0.390   1.443   1.105 -0.6642 -0.5349 -0.0171
 3457SOL    HW213600   0.455   1.460   1.172 -0.2128 -1.3029 -0.2379
 3457SOL    HW313601   0.402   1.513   1.040 -2.5798  1.5394  1.6950
 3457SOL    MW413602   0.400   1.454   1.105 -0.2878  0.2098 -0.0570
 3458SOL     OW13603   0.019   3.733   3.832  0.6244  0.0620 -0.6254
 3458SOL    HW213604  -0.024   3.680   3.899  0.3082  1.0998  0.0187
 3458SOL    HW313605   0.112   3.710   3.839  0.5389 -0.1354 -0.1103
 3458SOL    MW413606   0.026   3.723   3.841  0.3782 -0.1206  0.0548
 3459SOL     OW13607   0.020   4.315   0.606 -0.3243  1.0525 -0.1024
 3459SOL    HW213608  -0.030   4.391   0.637  2.2278  1.2773  4.3110
 3459SOL    HW313609   0.106   4.350   0.582  0.0305 -0.1293 -0.6555
 3459SOL    MW413610   0.025   4.330   0.607  0.1149 -0.3573 -0.3155
 3460SOL     OW13611   4.199   1.911   1.082 -0.2285 -0.0949 -0.3055
 3460SOL    HW213612   4.180   1.834   1.029  0.4709 -0.3721 -0.1641
 3460SOL    HW313613   4.118   1.928   1.130 -0.0713 -1.3888  0.4635
 3460SOL    MW413614   4.186   1.903   1.081 -0.3976  0.1069  0.5745
 3461SOL     OW13615   3.298   6.117   1.961 -0.3252 -0.0574 -0.0598
 3461SOL    HW213616   3.390   6.136   1.978 -0.3218  0.6806 -0.8623
 3461SOL    HW313617   3.297   6.025   1.935  0.4618  0.4125 -1.9165
 3461SOL    MW413618   3.310   6.107   1.960  0.1139  0.4322 -0.3780
 3462SOL     OW13619   1.361   4.058   0.938 -0.1903  0.2079  0.1534
 3462SOL    HW213620   1.385   4.144   0.905  1.2323 -0.1584  0.1771
 3462SOL    HW313621   1.416   3.997   0.890 -1.4802 -0.7468 -0.1661
 3462SOL    MW413622   1.371   4.061   0.928 -0.1931 -0.2500  0.2134
 3463SOL     OW13623   2.476   4.846   1.374 -0.3809  0.0163 -0.1945
 3463SOL    HW213624   2.490   4.940   1.383 -0.5478  0.1769 -1.4039
 3463SOL    HW313625   2.417   4.823   1.445 -1.9471  1.2079 -1.0556
 3463SOL    MW413626   2.470   4.855   1.384 -0.2617 -0.0539  0.4181
 3464SOL     OW13627   4.450   1.953   5.546  0.5267 -0.0327 -0.4638
 3464SOL    HW213628   4.519   1.960   5.480 -1.2646 -1.6239 -2.6918
 3464SOL    HW313629   4.373   1.992   5.504 -0.8322 -1.6258  0.4223
 3464SOL    MW413630   4.449   1.959   5.532 -0.1963 -0.2932  0.2599
 3465SOL     OW13631   5.196   5.922   0.819 -0.4369 -1.0309  0.3279
 3465SOL    HW213632   5.109   5.948   0.790  0.4004  0.9257 -0.5845
 3465SOL    HW313633   5.243   6.004   0.833  1.1173 -2.0265  1.2979
 3465SOL    MW413634   5.191   5.936   0.817  0.3984  0.1659 -0.1662
 3466SOL     OW13635   5.401   2.261   4.559  0.2513  0.8500  0.5095
 3466SOL    HW213636   5.493   2.267   4.533  0.1137  0.7543 -0.0297
 3466SOL    HW313637   5.356   2.229   4.480 -0.3110  1.3453  0.6119
 3466SOL    MW413638   5.407   2.258   4.545  0.2964  0.9301 -0.2770
 3467SOL     OW13639   5.459   5.741   6.013  0.0311  0.0144 -0.2753
 3467SOL    HW213640   5.535   5.698   6.052 -0.9402 -0.7721  0.8211
 3467SOL    HW313641   5.448   5.822   6.062  0.2353  0.2000 -0.5308
 3467SOL    MW413642   5.467   5.746   6.025 -0.1002  0.0268 -0.2653
 3468SOL     OW13643   4.101   0.206   3.097 -0.5243 -1.1747 -0.2951
 3468SOL    HW213644   4.037   0.241   3.035 -1.1771  0.6128  1.2815
 3468SOL    HW313645   4.050   0.148   3.154 -0.3988 -1.0404 -0.0447
 3468SOL    MW413646   4.086   0.203   3.096 -0.2535 -0.5713  0.2303
 3469SOL     OW13647   4.225   3.826   2.587  0.2804 -0.3651  0.1986
 3469SOL    HW213648   4.140   3.784   2.604  0.0486 -0.4551 -1.0947
 3469SOL    HW313649   4.282   3.794   2.656 -0.7704 -0.1967  1.1754
 3469SOL    MW413650   4.221   3.816   2.598 -0.6295  0.6136  0.4392
 3470SOL     OW13651   4.125   0.295   4.015 -0.4738  0.0011  0.0372
 3470SOL    HW213652   4.146   0.202   4.002 -0.0990 -0.1970  1.7536
 3470SOL    HW313653   4.044   0.308   3.967 -0.6672 -1.2898 -0.0247
 3470SOL    MW413654   4.117   0.284   4.007  0.9701 -0.0487  0.2300
 3471SOL     OW13655   2.224   5.809   3.249  0.1318 -0.1794 -0.6668
 3471SOL    HW213656   2.319   5.822   3.255  0.2659 -0.2731 -2.2156
 3471SOL    HW313657   2.210   5.778   3.160 -1.3778 -0.0424 -0.4964
 3471SOL    MW413658   2.235   5.807   3.238 -0.4339 -0.4644  0.2024
 3472SOL     OW13659   0.581   2.393   2.488  0.1501  0.3887 -0.4731
 3472SOL    HW213660   0.527   2.356   2.558 -2.0148  0.3445 -2.0552
 3472SOL    HW313661   0.617   2.473   2.525 -0.5945  0.1405  0.8339
 3472SOL    MW413662   0.579   2.398   2.502 -0.1645 -0.1414 -0.1257
 3473SOL     OW13663   1.281   6.421   0.728 -0.3061  0.5536 -0.3061
 3473SOL    HW213664   1.237   6.342   0.697 -1.4463  1.3157 -0.6821
 3473SOL    HW313665   1.362   6.389   0.768 -1.2456 -0.8963  0.5056
 3473SOL    MW413666   1.286   6.406   0.729  0.0296  0.3806  0.4531
 3474SOL     OW13667   2.468   4.416   1.318  0.1297  0.4010  0.7234
 3474SOL    HW213668   2.379   4.453   1.321 -0.3179 -0.6214  0.6154
 3474SOL    HW313669   2.514   4.470   1.255 -0.5504  0.6773  0.4491
 3474SOL    MW413670   2.462   4.428   1.310 -0.3546 -0.1830  0.2327
 3475SOL     OW13671   6.066   6.212   2.319 -0.0744 -0.5555 -0.7355
 3475SOL    HW213672   5.995   6.252   2.370  0.6721 -1.6035  1.2036
 3475SOL    HW313673   6.031   6.128   2.291 -1.2317  0.7774 -3.8708
 3475SOL    MW413674   6.052   6.207   2.322  0.2154  0.4511 -0.3895
 3476SOL     OW13675   6.355   4.105   2.141  0.2795 -0.3809  0.3592
 3476SOL    HW213676   6.326   4.196   2.152  1.4348 -0.0570  0.7973
 3476SOL    HW313677   6.384   4.078   2.228  3.7225  0.1801 -0.4655
 3476SOL    MW413678   6.355   4.114   2.154 -0.5082 -0.1976  0.4000
 3477SOL     OW13679   4.732   4.423   4.143  0.3798  0.1347 -0.5793
 3477SOL    HW213680   4.722   4.518   4.150 -0.1298  0.0510 -0.0907
 3477SOL    HW313681   4.642   4.391   4.131  0.2601 -0.4637  1.5792
 3477SOL    MW413682   4.718   4.431   4.142 -0.2423  0.4769  0.4713
 3478SOL     OW13683   6.130   0.950   0.144 -0.2971 -0.3860  0.0115
 3478SOL    HW213684   6.086   1.023   0.186 -0.5513 -0.5530  0.0409
 3478SOL    HW313685   6.070   0.875   0.157  0.2177 -0.7226  0.4711
 3478SOL    MW413686   6.116   0.949   0.151  0.2121 -0.2917  0.1602
 3479SOL     OW13687   2.602   5.714   3.567  0.2186  0.0495  0.0905
 3479SOL    HW213688   2.510   5.730   3.549  0.2502  0.0871 -0.0404
 3479SOL    HW313689   2.606   5.622   3.593 -0.2801  0.7601  2.9894
 3479SOL    MW413690   2.591   5.704   3.568  0.7386  0.3273 -0.1648
 3480SOL     OW13691   2.295   2.327   4.205  0.0643 -0.0678 -0.1571
 3480SOL    HW213692   2.284   2.299   4.114 -0.5770 -0.4197  0.0251
 3480SOL    HW313693   2.208   2.357   4.232  0.1107 -0.5369  0.5312
 3480SOL    MW413694   2.282   2.328   4.197 -0.3861 -0.0948  0.0631
 3481SOL     OW13695   3.551   1.343   5.152 -0.4459  0.4293  0.1093
 3481SOL    HW213696   3.637   1.302   5.161 -0.9887 -0.3960  2.0242
 3481SOL    HW313697   3.510   1.296   5.079  0.3404  0.1430 -0.1594
 3481SOL    MW413698   3.557   1.331   5.144 -0.1670  0.7524 -0.3671
 3482SOL     OW13699   5.133   5.746   0.294 -0.3615 -0.0242 -0.0054
 3482SOL    HW213700   5.192   5.675   0.272  3.2284  1.7064  2.9227
 3482SOL    HW313701   5.079   5.711   0.365 -1.0335 -0.7669 -0.8502
 3482SOL    MW413702   5.133   5.732   0.300  0.1799 -0.0949 -0.4869
 3483SOL     OW13703   4.248   4.213   0.702 -0.6331  0.3971 -0.2113
 3483SOL    HW213704   4.186   4.155   0.657 -2.0223  0.8681  1.0181
 3483SOL    HW313705   4.223   4.301   0.673  0.8691  0.5022 -1.3446
 3483SOL    MW413706   4.236   4.217   0.692 -1.0016  0.0263  0.0649
 3484SOL     OW13707   3.597   5.891   5.539  0.2281 -0.2002  0.2427
 3484SOL    HW213708   3.599   5.884   5.635 -0.2032 -0.6513  0.2200
 3484SOL    HW313709   3.596   5.800   5.508  1.1633 -0.0658 -0.2137
 3484SOL    MW413710   3.597   5.878   5.548  0.0920 -0.5273 -0.4501
 3485SOL     OW13711   1.398   0.172   1.767 -0.1688  0.4766  0.0964
 3485SOL    HW213712   1.404   0.261   1.733 -5.0786  2.2154  2.8096
 3485SOL    HW313713   1.455   0.173   1.845  0.0833  1.1401 -0.0866
 3485SOL    MW413714   1.406   0.184   1.773 -0.1884 -0.3216  0.3611
 3486SOL     OW13715   1.758   5.486   5.801  0.0573  0.1876 -0.5682
 3486SOL    HW213716   1.808   5.405   5.813 -0.2887 -0.0691 -0.8330
 3486SOL    HW313717   1.666   5.459   5.810 -0.1232  0.3474 -1.7258
 3486SOL    MW413718   1.752   5.472   5.804 -0.3171 -0.3728 -0.2888
 3487SOL     OW13719   5.770   3.923   3.737  0.1354 -0.1145  0.4533
 3487SOL    HW213720   5.724   3.933   3.654  0.4652  0.8585  0.3796
 3487SOL    HW313721   5.740   3.839   3.771  0.9404 -1.1304 -1.2312
 3487SOL    MW413722   5.760   3.913   3.730 -0.0549  0.2249 -0.9245
 3488SOL     OW13723   6.061   0.962   5.461  0.1565 -0.4334  0.1003
 3488SOL    HW213724   6.006   0.887   5.438 -0.7707  0.1531  0.3324
 3488SOL    HW313725   6.015   1.038   5.424 -0.4820  0.3389  2.3105
 3488SOL    MW413726   6.048   0.962   5.453  0.2957  0.1971  0.3494
 3489SOL     OW13727   2.010   5.305   0.189 -0.5805  0.0538 -0.2345
 3489SOL    HW213728   1.942   5.335   0.129 -0.0851  0.5807 -0.5445
 3489SOL    HW313729   1.973   5.229   0.232 -1.5549  0.6278 -0.0401
 3489SOL    MW413730   1.996   5.299   0.187 -0.2242 -0.3884 -0.2522
 3490SOL     OW13731   5.078   2.375   5.402  0.4216 -0.3865  0.4383
 3490SOL    HW213732   5.107   2.460   5.438  0.3092  0.9958 -2.4762
 3490SOL    HW313733   4.982   2.382   5.400  0.4365 -0.3523 -0.2821
 3490SOL    MW413734   5.069   2.387   5.407 -0.0249 -0.1877  0.1680
 3491SOL     OW13735   4.125   3.881   2.247 -0.1996 -0.2057 -0.0145
 3491SOL    HW213736   4.185   3.909   2.316  0.8893 -0.6104 -0.7758
 3491SOL    HW313737   4.052   3.942   2.253 -0.2622 -0.4074  1.6708
 3491SOL    MW413738   4.123   3.893   2.257 -0.1064  0.7372  0.0960
 3492SOL     OW13739   0.620   5.410   1.834  0.2218 -0.3904  0.2153
 3492SOL    HW213740   0.705   5.409   1.877  0.6110  0.0978 -0.5255
 3492SOL    HW313741   0.639   5.427   1.742 -0.7511  0.8700  0.2196
 3492SOL    MW413742   0.634   5.412   1.827  0.3287 -0.1131  0.0406
 3493SOL     OW13743   4.189   3.265   3.572  0.2419 -0.1100  0.0540
 3493SOL    HW213744   4.114   3.241   3.517  1.0158  0.5141 -1.3178
 3493SOL    HW313745   4.174   3.357   3.595  0.6684  0.0740 -0.3846
 3493SOL    MW413746   4.177   3.274   3.568  0.3380 -0.7396  0.3821
 3494SOL     OW13747   0.500   3.314   1.043  0.1043 -0.5113 -0.1033
 3494SOL    HW213748   0.505   3.408   1.029  2.1645 -0.6577 -0.7614
 3494SOL    HW313749   0.512   3.303   1.137 -0.3532 -0.1233  0.0058
 3494SOL    MW413750   0.502   3.325   1.053  0.4763 -0.1033  0.2310
 3495SOL     OW13751   1.007   2.244   2.469  0.3096 -0.5292  0.1908
 3495SOL    HW213752   1.020   2.188   2.392 -1.3082 -0.9832  0.2058
 3495SOL    HW313753   0.991   2.331   2.433 -1.0379 -0.8569 -0.0341
 3495SOL    MW413754   1.007   2.248   2.454  1.0722 -0.0064 -0.3851
 3496SOL     OW13755   1.152   2.681   2.459  0.2238 -0.4568  0.4749
 3496SOL    HW213756   1.174   2.734   2.383 -0.3338 -2.6977 -1.3555
 3496SOL    HW313757   1.077   2.726   2.498  0.6897  0.8810 -0.1076
 3496SOL    MW413758   1.145   2.694   2.454 -0.0743 -0.0309 -0.1499
 3497SOL     OW13759   4.295   5.742   0.244 -0.1131 -0.2434 -0.5629
 3497SOL    HW213760   4.359   5.750   0.173 -0.1698 -0.3725 -0.6287
 3497SOL    HW313761   4.220   5.795   0.215 -0.4876 -0.9877 -0.9966
 3497SOL    MW413762   4.293   5.750   0.230 -0.0710  0.1238  0.0306
 3498SOL     OW13763   1.284   1.379   4.938  0.0080  0.2912 -0.2000
 3498SOL    HW213764   1.279   1.407   4.847  1.0073  0.4841 -0.2061
 3498SOL    HW313765   1.205   1.327   4.952  0.9836 -1.7690 -1.8657
 3498SOL    MW413766   1.273   1.376   4.928 -0.5508  0.1511  0.4144
 3499SOL     OW13767   3.367   2.265   3.518 -0.0417 -0.5195 -0.2575
 3499SOL    HW213768   3.379   2.195   3.454  1.1915  0.3674 -1.0302
 3499SOL    HW313769   3.446   2.263   3.571  0.9271  1.5114 -1.5252
 3499SOL    MW413770   3.379   2.255   3.517  0.3254 -0.5606 -0.0958
 3500SOL     OW13771   4.104   5.967   4.902  0.3459  0.1653 -0.0544
 3500SOL    HW213772   4.157   5.908   4.955  0.3471  0.3481  0.1482
 3500SOL    HW313773   4.144   5.963   4.815 -0.7945 -1.5884 -0.5500
 3500SOL    MW413774   4.117   5.959   4.897 -0.2693  0.4982 -0.0955
 3501SOL     OW13775   2.835   4.637   5.198 -0.3324  0.4162 -0.2869
 3501SOL    HW213776   2.931   4.640   5.198 -0.2204 -1.4912  0.4886
 3501SOL    HW313777   2.810   4.643   5.106  0.6235 -0.5146 -0.6276
 3501SOL    MW413778   2.845   4.638   5.186 -0.1168 -0.0958 -0.4781
 3502SOL     OW13779   3.769   0.161   5.786 -0.1985  0.2700  0.4056
 3502SOL    HW213780   3.770   0.235   5.726  0.2836  0.7278  0.9616
 3502SOL    HW313781   3.852   0.168   5.834 -0.7604  0.1630  1.4219
 3502SOL    MW413782   3.780   0.171   5.784  0.0815 -0.1826  0.2838
 3503SOL     OW13783   0.800   4.965   3.522 -0.0413  0.0912  0.9646
 3503SOL    HW213784   0.716   4.932   3.555 -0.8880  0.9196 -0.2675
 3503SOL    HW313785   0.842   4.888   3.483 -1.4479  0.1443 -0.7879
 3503SOL    MW413786   0.794   4.950   3.521  0.7242 -0.2358  0.1627
 3504SOL     OW13787   4.518   3.648   5.365  0.3736  0.2314  0.5121
 3504SOL    HW213788   4.490   3.679   5.452  0.7082  0.9661  0.3634
 3504SOL    HW313789   4.493   3.556   5.364 -2.4190  0.9036  0.2601
 3504SOL    MW413790   4.511   3.640   5.376 -0.3997  0.0081 -0.4373
 3505SOL     OW13791   0.803   3.470   4.400  0.3426  0.2079  0.1354
 3505SOL    HW213792   0.845   3.484   4.315 -2.1693 -0.8949 -1.4434
 3505SOL    HW313793   0.709   3.478   4.381 -0.3789 -1.5273  2.4774
 3505SOL    MW413794   0.796   3.473   4.386  0.4240  0.2198  0.1027
 3506SOL     OW13795   2.523   4.047   2.246 -0.4762  1.0435  0.3253
 3506SOL    HW213796   2.511   4.124   2.190 -2.1630  0.6912  0.1776
 3506SOL    HW313797   2.524   4.083   2.335  3.3210  1.7504  0.1712
 3506SOL    MW413798   2.522   4.062   2.251  0.1888 -0.3918 -0.0259
 3507SOL     OW13799   5.402   1.345   2.539  0.1519 -0.7683  0.2845
 3507SOL    HW213800   5.437   1.258   2.560  0.9128 -0.0312  2.3514
 3507SOL    HW313801   5.311   1.341   2.567  0.3127 -0.7835  0.8332
 3507SOL    MW413802   5.395   1.333   2.546  0.4477 -0.2537 -0.4729
 3508SOL     OW13803   3.095   2.032   0.907  0.0517 -0.2702 -0.4289
 3508SOL    HW213804   3.079   2.122   0.880 -2.6998 -0.3343  0.5843
 3508SOL    HW313805   3.024   1.982   0.866  0.4122 -1.6542  0.5532
 3508SOL    MW413806   3.083   2.037   0.898  0.6282 -0.0348 -0.0674
 3509SOL     OW13807   3.880   3.510   0.808  0.1066 -0.6360 -0.1788
 3509SOL    HW213808   3.809   3.555   0.854 -1.5301 -2.1664 -1.0725
 3509SOL    HW313809   3.857   3.417   0.813  1.4424 -1.0761 -1.4917
 3509SOL    MW413810   3.868   3.504   0.815  0.1662  0.1448  0.0990
 3510SOL     OW13811   5.064   4.778   6.355 -0.2393 -0.8673  0.3128
 3510SOL    HW213812   5.058   4.751   6.446 -0.1196 -0.6384  0.3897
 3510SOL    HW313813   5.158   4.777   6.336 -0.1501  0.3501  0.5849
 3510SOL    MW413814   5.076   4.774   6.364 -1.0692 -0.0830 -0.4739
 3511SOL     OW13815   4.127   4.726   1.955 -0.4673  0.0677 -0.0277
 3511SOL    HW213816   4.117   4.821   1.943 -0.4369 -0.1467 -1.9623
 3511SOL    HW313817   4.054   4.702   2.013  0.7230  1.5411  2.2509
 3511SOL    MW413818   4.116   4.735   1.961  0.7191  0.0105  0.0577
 3512SOL     OW13819   2.394   1.368   2.334 -0.8503  0.5588  0.0902
 3512SOL    HW213820   2.486   1.355   2.357 -0.4662  1.5263 -0.8337
 3512SOL    HW313821   2.379   1.462   2.344 -1.7827  0.3946  0.3520
 3512SOL    MW413822   2.404   1.378   2.339 -0.1779 -0.2836  0.0815
 3513SOL     OW13823   3.750   5.505   0.475 -0.3391  0.1041 -0.6931
 3513SOL    HW213824   3.676   5.553   0.437  0.1677 -0.5061 -2.5614
 3513SOL    HW313825   3.822   5.519   0.414  0.3860 -1.3814 -0.2424
 3513SOL    MW413826   3.750   5.513   0.462  0.0587  0.5699 -0.0492
 3514SOL     OW13827   6.271   0.694   4.013  0.7222  0.1760  0.3123
 3514SOL    HW213828   6.354   0.739   3.998  0.5935  1.1781  2.2684
 3514SOL    HW313829   6.221   0.754   4.068 -1.2000 -0.5436 -0.5683
 3514SOL    MW413830   6.275   0.708   4.019 -0.3176  0.1752 -0.0075
 3515SOL     OW13831   3.870   1.047   5.889 -0.0849 -0.0598  0.7706
 3515SOL    HW213832   3.869   0.953   5.870  2.1976  0.0597 -0.1987
 3515SOL    HW313833   3.886   1.053   5.983  0.0188 -0.6291  0.7885
 3515SOL    MW413834   3.872   1.036   5.898 -0.2298 -0.5291  0.2895
 3516SOL     OW13835   2.083   4.257   0.761  0.0693  0.0361  0.6695
 3516SOL    HW213836   2.165   4.242   0.715  1.2827  0.1515  2.6825
 3516SOL    HW313837   2.090   4.346   0.795  1.2419 -1.3785  4.7069
 3516SOL    MW413838   2.095   4.266   0.760  0.1592 -0.2997 -0.3524
 3517SOL     OW13839   2.269   5.672   4.155 -0.0553  0.5270  0.6228
 3517SOL    HW213840   2.357   5.695   4.184  0.9146 -0.8531 -1.0814
 3517SOL    HW313841   2.232   5.622   4.228  0.5439  1.0994  1.3406
 3517SOL    MW413842   2.276   5.669   4.169  0.0308 -0.5366  0.1837
 3518SOL     OW13843   1.538   5.039   5.326 -0.3219  0.0204 -0.0804
 3518SOL    HW213844   1.483   5.090   5.386 -1.3617 -0.4137 -0.6392
 3518SOL    HW313845   1.566   4.964   5.377  0.2957  0.5661  0.4038
 3518SOL    MW413846   1.534   5.036   5.341 -0.0883  0.1683  0.1084
 3519SOL     OW13847   5.266   5.052   3.959 -0.6076 -0.2446  0.1562
 3519SOL    HW213848   5.240   5.131   3.913 -1.6974  0.4313  1.8265
 3519SOL    HW313849   5.217   4.982   3.917  1.7370 -0.4318 -2.5571
 3519SOL    MW413850   5.256   5.053   3.948 -0.8083 -0.2824  0.7958
 3520SOL     OW13851   1.129   3.538   2.846  0.5361 -0.3769 -0.4287
 3520SOL    HW213852   1.183   3.475   2.893  0.1430 -0.4898 -0.1200
 3520SOL    HW313853   1.072   3.576   2.914 -0.8331 -1.3653 -0.9819
 3520SOL    MW413854   1.128   3.535   2.861  0.1923  0.0600 -0.7145
 3521SOL     OW13855   2.722   5.775   2.679 -0.7277  0.1047 -0.3530
 3521SOL    HW213856   2.680   5.694   2.648 -0.7128 -0.1412  0.2504
 3521SOL    HW313857   2.673   5.798   2.758 -1.0592  0.9734 -0.7974
 3521SOL    MW413858   2.710   5.767   2.685 -0.3250 -0.1962 -0.2714
 3522SOL     OW13859   4.612   4.887   0.353 -0.0371 -0.0238  0.2895
 3522SOL    HW213860   4.631   4.807   0.404 -1.3370 -0.8153 -0.4143
 3522SOL    HW313861   4.541   4.929   0.401  1.8004  1.7246  1.6594
 3522SOL    MW413862   4.605   4.882   0.366 -0.0633 -0.1406  0.2292
 3523SOL     OW13863   1.993   1.471   5.617  0.2175  0.5380  0.2862
 3523SOL    HW213864   1.948   1.388   5.627  0.9551  0.2357  1.2264
 3523SOL    HW313865   2.007   1.502   5.706  0.6940  1.2595 -0.0263
 3523SOL    MW413866   1.989   1.464   5.630  0.0115 -0.0957 -0.4898
 3524SOL     OW13867   0.383   0.384   5.836 -0.1486  0.2173  0.4329
 3524SOL    HW213868   0.289   0.376   5.853 -0.4948 -0.7814 -1.5871
 3524SOL    HW313869   0.388   0.431   5.753  1.1264  0.0320  0.3880
 3524SOL    MW413870   0.372   0.389   5.827 -0.4886  0.0081  0.5378
 3525SOL     OW13871   2.651   5.435   6.017 -0.1773  0.5037  0.5245
 3525SOL    HW213872   2.628   5.399   6.103  2.0206 -1.0206  0.5369
 3525SOL    HW313873   2.632   5.365   5.956  1.9713  0.0771  0.2732
 3525SOL    MW413874   2.645   5.421   6.021  0.2568  0.1557  0.4178
 3526SOL     OW13875   5.288   2.577   2.897  0.1633 -0.2435 -0.2332
 3526SOL    HW213876   5.244   2.639   2.839  1.3792 -0.8838 -1.9222
 3526SOL    HW313877   5.347   2.631   2.950 -1.0208  0.3584  0.5131
 3526SOL    MW413878   5.290   2.592   2.897 -0.4702  0.2079  0.3309
 3527SOL     OW13879   1.289   4.112   3.237 -0.2993  0.1010  0.6155
 3527SOL    HW213880   1.330   4.198   3.239 -0.8679  0.3993 -0.1446
 3527SOL    HW313881   1.327   4.069   3.161  1.3049 -1.0102  1.9918
 3527SOL    MW413882   1.299   4.118   3.228  0.2475 -0.1489  0.3653
 3528SOL     OW13883   1.959   3.931   5.981 -0.5112  0.7266  0.1403
 3528SOL    HW213884   2.049   3.932   6.014  0.0070  0.6219 -1.2251
 3528SOL    HW313885   1.910   3.879   6.045  0.4617  0.5261  0.7331
 3528SOL    MW413886   1.964   3.924   5.994  0.6713 -0.0308  0.2275
 3529SOL     OW13887   6.385   1.012   1.009 -0.7145  0.5002 -0.3812
 3529SOL    HW213888   6.418   0.930   0.972 -0.0313  1.3039 -1.5995
 3529SOL    HW313889   6.370   0.991   1.102  2.4627 -0.1756  0.0887
 3529SOL    MW413890   6.387   0.998   1.017 -0.9375  0.1203 -0.1192
 3530SOL     OW13891   0.845   5.670   6.063 -0.2419 -0.0746 -0.2788
 3530SOL    HW213892   0.778   5.727   6.026 -0.1696 -1.0857 -2.0737
 3530SOL    HW313893   0.804   5.584   6.069  1.2808 -1.1439 -3.0707
 3530SOL    MW413894   0.831   5.666   6.059 -0.1768  0.1872  0.0753
 3531SOL     OW13895   1.705   6.012   4.222  0.3346 -0.1821  0.0082
 3531SOL    HW213896   1.698   5.989   4.315  1.4261 -0.1504  0.1063
 3531SOL    HW313897   1.618   6.045   4.199  0.1537  0.1380  1.1075
 3531SOL    MW413898   1.692   6.013   4.231  0.4387  0.1430 -0.0553
 3532SOL     OW13899   4.151   3.457   4.664 -0.1037 -0.3759  0.3080
 3532SOL    HW213900   4.226   3.488   4.613  0.2878 -1.3040  0.2980
 3532SOL    HW313901   4.081   3.446   4.599  0.2272 -1.0160  0.0506
 3532SOL    MW413902   4.152   3.460   4.649  0.0001 -0.2653 -0.6268
 3533SOL     OW13903   5.573   2.937   3.999 -0.1247 -0.5757  0.0122
 3533SOL    HW213904   5.574   2.936   3.903 -1.6610 -0.0923 -0.0257
 3533SOL    HW313905   5.602   3.025   4.023  2.0735 -1.2447  0.0843
 3533SOL    MW413906   5.577   2.948   3.989 -0.1287 -0.0666 -0.8986
 3534SOL     OW13907   3.820   1.177   3.207 -0.2109 -0.3252  0.4004
 3534SOL    HW213908   3.811   1.166   3.113 -0.8094  1.5402  0.1945
 3534SOL    HW313909   3.912   1.201   3.220 -0.0588 -0.8692  0.3281
 3534SOL    MW413910   3.831   1.179   3.197  0.7782 -0.6127 -0.1021
 3535SOL     OW13911   1.658   0.265   2.237 -0.5854  0.1029 -0.3640
 3535SOL    HW213912   1.723   0.330   2.210  0.9186 -0.6720  1.2456
 3535SOL    HW313913   1.700   0.215   2.307 -2.1502 -1.8148 -0.6909
 3535SOL    MW413914   1.672   0.267   2.243 -0.0768  0.1964 -0.7376
 3536SOL     OW13915   3.905   1.074   2.201 -0.0612  0.0322  0.0733
 3536SOL    HW213916   3.981   1.056   2.145  0.2066 -0.4765  0.5887
 3536SOL    HW313917   3.943   1.091   2.287 -0.4178  1.4677 -0.0215
 3536SOL    MW413918   3.920   1.074   2.205 -0.3376 -0.2108 -0.3665
 3537SOL     OW13919   1.611   6.327   4.498 -0.0629 -0.4003 -0.3203
 3537SOL    HW213920   1.526   6.284   4.504  0.0908 -0.7518 -0.6264
 3537SOL    HW313921   1.624   6.343   4.405  1.0378 -2.0627 -0.4933
 3537SOL    MW413922   1.602   6.323   4.487 -0.4286 -0.4100 -0.0938
 3538SOL     OW13923   3.409   0.978   4.818  0.7787  0.7038  0.2090
 3538SOL    HW213924   3.434   1.061   4.860  2.4127  1.7945 -2.6636
 3538SOL    HW313925   3.375   1.005   4.732 -1.2837 -1.4880  0.2383
 3538SOL    MW413926   3.408   0.993   4.812 -0.2064  0.2749  0.1032
 3539SOL     OW13927   1.972   1.395   4.146 -0.7030  0.2028 -0.1268
 3539SOL    HW213928   1.914   1.452   4.096  0.5235  0.8401 -0.8764
 3539SOL    HW313929   1.998   1.447   4.222 -0.9012  0.0120  0.0747
 3539SOL    MW413930   1.968   1.409   4.149  0.8492  0.4166  0.0739
 3540SOL     OW13931   0.877   1.346   0.375  0.5507 -0.2726  0.5905
 3540SOL    HW213932   0.888   1.439   0.357  0.7545 -0.1891  1.1449
 3540SOL    HW313933   0.809   1.342   0.442 -0.2507 -0.5895 -0.2149
 3540SOL    MW413934   0.870   1.358   0.381 -0.8493 -0.3016  0.7641
 3541SOL     OW13935   3.991   1.706   1.904 -0.1550 -0.5007 -0.4171
 3541SOL    HW213936   3.906   1.665   1.920 -0.7207  0.0528 -1.9114
 3541SOL    HW313937   3.999   1.709   1.809  1.3763 -0.1903 -0.3037
 3541SOL    MW413938   3.981   1.701   1.894  0.1425  0.5259 -0.1856
 3542SOL     OW13939   1.658   0.037   3.618  0.0322  0.1429  0.0829
 3542SOL    HW213940   1.657   0.018   3.524 -2.7204 -3.0354  0.5675
 3542SOL    HW313941   1.593   0.106   3.629  1.3905  1.5629 -0.4155
 3542SOL    MW413942   1.649   0.044   3.607  0.2456 -0.1185 -0.3825
 3543SOL     OW13943   2.068   5.990   0.408 -0.6106  0.2615  0.4663
 3543SOL    HW213944   2.052   5.995   0.313 -0.7497  0.4268  0.4995
 3543SOL    HW313945   2.039   5.902   0.432 -0.5106  0.1939  0.3433
 3543SOL    MW413946   2.062   5.979   0.398 -0.2965 -0.1773 -0.3506
 3544SOL     OW13947   5.575   3.288   6.132 -0.6728 -0.3846  0.1664
 3544SOL    HW213948   5.513   3.291   6.206 -0.4887  1.6936  0.2878
 3544SOL    HW313949   5.613   3.376   6.129  0.6966 -0.9847 -1.2675
 3544SOL    MW413950   5.572   3.300   6.142 -0.2196  0.5333  0.1830
 3545SOL     OW13951   2.178   4.057   5.766  0.2643  0.1664 -0.1082
 3545SOL    HW213952   2.255   4.113   5.766  1.3142 -1.0932 -3.2467
 3545SOL    HW313953   2.189   4.000   5.843  1.9687  0.6216  0.0085
 3545SOL    MW413954   2.190   4.057   5.776  0.9495 -0.3555 -0.3986
 3546SOL     OW13955   2.031   4.068   1.340  0.5845  0.7697  0.1228
 3546SOL    HW213956   1.941   4.095   1.358  0.8357  0.4638  2.0127
 3546SOL    HW313957   2.028   4.031   1.252 -0.7820  2.3073 -0.5105
 3546SOL    MW413958   2.019   4.066   1.331 -0.1756  0.0934 -0.1051
 3547SOL     OW13959   2.807   6.095   4.614 -0.3284 -0.6222  0.0577
 3547SOL    HW213960   2.758   6.089   4.696  0.5067  1.0405  0.7306
 3547SOL    HW313961   2.780   6.018   4.564 -1.7178 -1.0652  1.4145
 3547SOL    MW413962   2.797   6.084   4.619 -0.7739 -0.3384  0.1521
 3548SOL     OW13963   5.521   0.834   5.803 -0.0373 -0.2725  0.4098
 3548SOL    HW213964   5.524   0.929   5.809 -1.2475 -0.1991  0.2522
 3548SOL    HW313965   5.432   0.811   5.831 -0.2513 -1.2293 -0.9099
 3548SOL    MW413966   5.510   0.843   5.807 -0.3097  0.2494  0.4607
 3549SOL     OW13967   1.280   2.966   3.999  0.7512  0.1461  0.6891
 3549SOL    HW213968   1.234   2.962   3.915  0.9317 -0.8126  0.6240
 3549SOL    HW313969   1.311   3.056   4.004 -0.0708  0.4804  0.1677
 3549SOL    MW413970   1.278   2.977   3.988  0.8737 -0.3885  0.1564
 3550SOL     OW13971   4.384   0.266   3.427 -0.1521 -0.1636  0.0756
 3550SOL    HW213972   4.328   0.312   3.365  0.7179  0.0033 -0.5973
 3550SOL    HW313973   4.467   0.254   3.381 -0.0828 -1.6817  0.5279
 3550SOL    MW413974   4.387   0.270   3.413 -0.9618 -0.8858  0.0500
 3551SOL     OW13975   0.652   2.530   5.942 -0.5178  0.0946  0.5014
 3551SOL    HW213976   0.635   2.527   5.848  1.8659 -0.4302  0.0339
 3551SOL    HW313977   0.570   2.563   5.980 -3.0497 -3.4566 -1.2784
 3551SOL    MW413978   0.639   2.534   5.935 -0.2847  0.0908 -0.2164
 3552SOL     OW13979   4.135   4.480   4.975 -0.6550  0.4738  0.0904
 3552SOL    HW213980   4.109   4.435   5.055 -2.5359 -1.0041 -1.2542
 3552SOL    HW313981   4.074   4.553   4.967 -0.1511  0.9170  0.2409
 3552SOL    MW413982   4.124   4.484   4.984 -0.1603  0.0388 -0.6528
 3553SOL     OW13983   1.067   4.827   2.518  0.0767 -0.2685  0.1092
 3553SOL    HW213984   1.086   4.920   2.511 -2.4868  0.2691 -1.1760
 3553SOL    HW313985   0.971   4.822   2.518  0.1193 -2.8460  1.3852
 3553SOL    MW413986   1.057   4.839   2.517  0.7118 -0.0220  0.1632
 3554SOL     OW13987   4.770   2.142   4.234 -0.6295  0.2567  0.5064
 3554SOL    HW213988   4.699   2.201   4.260 -0.6498  0.6443 -0.3913
 3554SOL    HW313989   4.741   2.055   4.260 -1.2071  0.4761  0.5966
 3554SOL    MW413990   4.757   2.139   4.241 -0.1049 -0.2211  0.0388
 3555SOL     OW13991   1.942   3.523   4.214 -0.0083 -0.8985 -0.3647
 3555SOL    HW213992   1.929   3.604   4.264  1.3156 -0.0120 -1.3912
 3555SOL    HW313993   1.894   3.456   4.264 -0.7363  0.4136  0.7600
 3555SOL    MW413994   1.934   3.525   4.227 -0.1755 -0.2766 -0.5516
 3556SOL     OW13995   2.977   3.880   5.659 -0.4651 -0.0265  0.0747
 3556SOL    HW213996   2.993   3.838   5.744 -1.1710  1.3474  0.9316
 3556SOL    HW313997   2.897   3.838   5.627 -1.6721  1.1895  1.3380
 3556SOL    MW413998   2.969   3.869   5.666  0.3863  0.0746 -0.0230
 3557SOL     OW13999   4.688   3.307   6.033  0.1868 -0.2396  0.0568
 3557SOL    HW214000   4.652   3.395   6.022  2.3287  0.7014  0.1214
 3557SOL    HW314001   4.663   3.261   5.952 -0.4229  0.6030 -0.2506
 3557SOL    MW414002   4.680   3.312   6.021  0.1554  0.0503  0.5682
 3558SOL     OW14003   1.313   0.451   4.981  0.2607 -0.0667  0.0643
 3558SOL    HW214004   1.234   0.406   5.012  1.3078 -2.5579 -0.6195
 3558SOL    HW314005   1.280   0.524   4.928 -1.5351  0.7813  2.1587
 3558SOL    MW414006   1.298   0.455   4.978 -0.3503  0.1102 -0.4761
 3559SOL     OW14007   6.024   4.121   2.083 -0.3272  0.1147 -0.4831
 3559SOL    HW214008   6.078   4.195   2.109 -0.4366  0.5271 -1.3780
 3559SOL    HW314009   5.936   4.157   2.074 -1.4468 -1.1207  3.7318
 3559SOL    MW414010   6.020   4.135   2.085 -0.5399 -0.0543 -0.1198
 3560SOL     OW14011   3.983   1.611   3.176  0.4254  0.5192  0.3648
 3560SOL    HW214012   4.034   1.639   3.252 -0.6910 -1.4522  1.9445
 3560SOL    HW314013   3.963   1.519   3.193 -2.8702  0.9138 -0.5903
 3560SOL    MW414014   3.987   1.603   3.188  0.0253 -0.8881 -0.1778
 3561SOL     OW14015   2.810   0.464   3.598  0.4812 -0.5450  0.4266
 3561SOL    HW214016   2.866   0.535   3.629  0.4225 -0.4833  0.3917
 3561SOL    HW314017   2.757   0.503   3.528  1.3798 -0.9643 -0.5166
 3561SOL    MW414018   2.810   0.479   3.593 -0.2724  0.3903 -0.0923
 3562SOL     OW14019   1.001   3.897   2.911  0.3506  0.4806  0.5385
 3562SOL    HW214020   0.985   3.986   2.943 -0.4598  0.3873  0.4333
 3562SOL    HW314021   0.918   3.872   2.870  1.1323  0.3588 -1.0706
 3562SOL    MW414022   0.988   3.905   2.910 -0.1404  0.0898  0.1529
 3563SOL     OW14023   5.047   5.103   2.477  0.1054  0.0160 -0.6178
 3563SOL    HW214024   5.065   5.181   2.531  0.9770 -0.6264  0.0599
 3563SOL    HW314025   5.133   5.078   2.444 -0.4529  0.5741 -2.6033
 3563SOL    MW414026   5.061   5.110   2.480 -0.3245  0.1293 -0.5719
 3564SOL     OW14027   5.136   1.611   0.454  0.4297 -0.0471  0.5629
 3564SOL    HW214028   5.156   1.679   0.517 -0.2876 -0.9147  1.7758
 3564SOL    HW314029   5.213   1.554   0.453  1.1684  0.9368 -0.7065
 3564SOL    MW414030   5.149   1.612   0.462 -0.3349  0.4138  0.4213
 3565SOL     OW14031   0.357   3.563   0.019  0.3122  0.1556  0.1615
 3565SOL    HW214032   0.442   3.533   0.052  0.2811  0.9144  0.9772
 3565SOL    HW314033   0.367   3.658   0.012 -0.0040  0.1151 -1.1578
 3565SOL    MW414034   0.370   3.571   0.022 -0.0366 -0.1742 -0.4824
 3566SOL     OW14035   0.820   5.867   2.940 -0.2402  0.3950  0.5777
 3566SOL    HW214036   0.728   5.843   2.950  0.2152 -2.4115 -0.9476
 3566SOL    HW314037   0.865   5.813   3.005  0.5744 -0.7424 -0.8752
 3566SOL    MW414038   0.814   5.857   2.950  0.9496 -0.2296  0.4653
 3567SOL     OW14039   0.719   0.258   0.032  0.3737  0.3156  0.2740
 3567SOL    HW214040   0.692   0.169   0.053  0.7964  0.2658  0.6217
 3567SOL    HW314041   0.668   0.281  -0.046  0.6579 -0.4278 -0.1415
 3567SOL    MW414042   0.709   0.249   0.025 -0.0249  0.1803  0.3153
 3568SOL     OW14043   0.098   6.001   4.488  0.1099 -0.4317  0.3032
 3568SOL    HW214044   0.019   5.950   4.466 -0.0532 -0.6662  1.3817
 3568SOL    HW314045   0.154   5.938   4.534  0.1018  0.2303  1.2439
 3568SOL    MW414046   0.095   5.986   4.491 -0.9114  0.4367 -0.0613
 3569SOL     OW14047   0.172   2.938   5.985  0.1750 -0.6783 -0.2197
 3569SOL    HW214048   0.151   3.031   5.971  1.6833 -0.1667  0.6388
 3569SOL    HW314049   0.087   2.896   5.998 -0.4447  0.9473  1.3589
 3569SOL    MW414050   0.158   2.945   5.985  0.1167 -0.2038 -0.1613
 3570SOL     OW14051   3.435   5.886   5.907 -0.1405  0.1977 -0.2460
 3570SOL    HW214052   3.449   5.903   6.000  0.1754 -0.1256 -0.2326
 3570SOL    HW314053   3.409   5.794   5.903  0.3408  0.0696 -0.5202
 3570SOL    MW414054   3.434   5.876   5.919  0.5173  0.5701  0.1298
 3571SOL     OW14055   3.345   0.822   1.323  0.2319  0.6656 -0.4408
 3571SOL    HW214056   3.393   0.901   1.348  2.4557 -0.9211  0.5505
 3571SOL    HW314057   3.253   0.848   1.328  0.7969  2.5216  2.2804
 3571SOL    MW414058   3.339   0.836   1.327  0.7350 -0.5216 -0.0893
 3572SOL     OW14059   1.059   0.812   2.327  0.0516  0.1653 -0.3950
 3572SOL    HW214060   1.066   0.894   2.377 -0.5622  0.9027 -1.4632
 3572SOL    HW314061   1.146   0.800   2.289  0.3774 -0.1301  0.4143
 3572SOL    MW414062   1.071   0.821   2.329 -0.0022  0.4065 -0.5930
 3573SOL     OW14063   4.689   3.790   2.346  0.6448  0.2315  0.3937
 3573SOL    HW214064   4.719   3.824   2.261  1.6687 -1.9857 -0.1911
 3573SOL    HW314065   4.595   3.803   2.345  0.7309  0.9224 -0.7637
 3573SOL    MW414066   4.681   3.797   2.335 -0.1715 -0.2948 -0.3827
 3574SOL     OW14067   4.478   4.457   5.424 -0.2683 -0.0096 -0.4117
 3574SOL    HW214068   4.387   4.446   5.449 -0.0274  0.0990  0.5640
 3574SOL    HW314069   4.523   4.384   5.465 -0.0495 -0.6433 -1.7244
 3574SOL    MW414070   4.472   4.446   5.433 -0.0169  0.0631  0.2707
 3575SOL     OW14071   4.124   2.441   2.785 -0.7324  0.6129 -0.1575
 3575SOL    HW214072   4.160   2.462   2.699 -1.6503 -0.5799 -0.8668
 3575SOL    HW314073   4.030   2.432   2.770 -1.0057  1.1924  1.1461
 3575SOL    MW414074   4.116   2.442   2.771 -0.1627  1.0040  0.2970
 3576SOL     OW14075   3.311   2.034   6.045  0.0388  0.8949 -0.0127
 3576SOL    HW214076   3.237   2.049   6.104  1.8053 -0.5011  2.7853
 3576SOL    HW314077   3.293   1.949   6.005  0.1684  0.4354  0.8610
 3576SOL    MW414078   3.299   2.024   6.048 -0.4028 -0.1403  0.1972
 3577SOL     OW14079   5.334   3.224   3.579  1.3059  0.3214 -0.1647
 3577SOL    HW214080   5.332   3.162   3.506  1.4136  0.2246 -0.0871
 3577SOL    HW314081   5.247   3.262   3.581  0.7490 -0.9058  0.6988
 3577SOL    MW414082   5.322   3.221   3.570 -0.4673 -0.0557  0.5343
 3578SOL     OW14083   0.029   6.066   6.344 -0.3349  0.1041  0.3265
 3578SOL    HW214084   0.110   6.116   6.349  0.0082 -0.0414 -2.1655
 3578SOL    HW314085   0.040   5.995   6.407  2.3811 -1.0855 -1.3115
 3578SOL    MW414086   0.041   6.063   6.353 -0.1632  0.3718  0.1200
 3579SOL     OW14087   5.485   5.455   4.231 -0.0874 -0.0141  0.3322
 3579SOL    HW214088   5.501   5.374   4.184 -0.6292 -0.7467  1.3680
 3579SOL    HW314089   5.516   5.524   4.172 -0.9797 -0.8620 -1.1752
 3579SOL    MW414090   5.492   5.454   4.217  0.1911 -0.1925 -0.3794
 3580SOL     OW14091   4.825   4.022   0.974  0.5836  0.2634 -0.0785
 3580SOL    HW214092   4.736   4.024   0.939  0.7415  0.9000 -0.4600
 3580SOL    HW314093   4.828   4.095   1.036  1.3066  1.2961 -1.2737
 3580SOL    MW414094   4.814   4.032   0.977  0.6334 -0.9060 -0.5036
 3581SOL     OW14095   1.603   0.568   2.009 -0.2932  0.5992 -0.4426
 3581SOL    HW214096   1.682   0.541   1.963 -1.2846  0.3079 -2.0785
 3581SOL    HW314097   1.599   0.663   1.998  1.0488  0.9765  1.7582
 3581SOL    MW414098   1.613   0.577   2.002  0.3501 -0.7103  0.6545
 3582SOL     OW14099   0.452   2.242   0.130  0.0785 -0.0608  0.2243
 3582SOL    HW214100   0.475   2.328   0.095  1.7405 -1.0974 -1.3907
 3582SOL    HW314101   0.357   2.238   0.121 -0.3016  2.2690  2.0728
 3582SOL    MW414102   0.442   2.253   0.124 -0.4970 -0.2822 -0.5707
 3583SOL     OW14103   5.481   3.207   2.083  0.0869 -0.6807 -0.3731
 3583SOL    HW214104   5.446   3.140   2.024  1.6454  0.3906 -2.6872
 3583SOL    HW314105   5.576   3.193   2.081  0.4423  1.4171 -0.7859
 3583SOL    MW414106   5.489   3.196   2.075 -0.6928  0.1803  0.2932
 3584SOL     OW14107   5.551   1.531   3.282  0.4171  0.4835 -0.5660
 3584SOL    HW214108   5.542   1.496   3.370  0.1377 -1.5324 -1.3572
 3584SOL    HW314109   5.638   1.571   3.280  0.1210  1.2528  0.8201
 3584SOL    MW414110   5.561   1.532   3.293 -0.1278 -0.0622  0.4902
 3585SOL     OW14111   5.003   1.369   4.018 -0.4547 -0.3406  0.3142
 3585SOL    HW214112   5.015   1.303   4.085  0.8652 -1.0110 -0.5435
 3585SOL    HW314113   4.994   1.319   3.936  1.3355  0.5250 -0.4554
 3585SOL    MW414114   5.003   1.354   4.016 -0.3669  0.2979 -0.0614
 3586SOL     OW14115   5.078   5.712   2.385 -0.0836 -0.0816 -0.1157
 3586SOL    HW214116   5.007   5.684   2.327 -0.1014  1.0203 -0.6470
 3586SOL    HW314117   5.086   5.806   2.370  1.0062 -0.0601  0.4755
 3586SOL    MW414118   5.070   5.720   2.375  0.2554  0.9967  0.2228
 3587SOL     OW14119   4.480   1.850   2.754  0.0312  0.6802 -0.4975
 3587SOL    HW214120   4.468   1.941   2.725 -2.8485  1.3411  2.1956
 3587SOL    HW314121   4.468   1.854   2.849  3.0654 -2.1321  0.1450
 3587SOL    MW414122   4.477   1.863   2.762 -0.0606  0.4559  0.6185
 3588SOL     OW14123   3.359   4.386   1.074  0.3440  0.0775  0.0074
 3588SOL    HW214124   3.303   4.401   0.998 -0.4587  0.3805  0.6539
 3588SOL    HW314125   3.419   4.316   1.046  1.3769  1.5092 -1.5865
 3588SOL    MW414126   3.360   4.379   1.060  0.4733  0.3604 -0.6095
 3589SOL     OW14127   4.450   1.007   3.699 -0.2544 -0.1553  0.5677
 3589SOL    HW214128   4.357   0.985   3.702  0.0655 -1.5680  0.7664
 3589SOL    HW314129   4.493   0.928   3.666  0.9297  0.3174  0.9117
 3589SOL    MW414130   4.444   0.994   3.695 -0.1218 -0.1401 -0.3759
 3590SOL     OW14131   0.188   6.215   6.070 -0.0637 -0.2101  0.3431
 3590SOL    HW214132   0.240   6.160   6.130 -1.1634  0.0633  1.5981
 3590SOL    HW314133   0.208   6.181   5.983  0.5336 -1.5325  0.9640
 3590SOL    MW414134   0.197   6.203   6.067  0.0663 -0.2930 -0.0856
 3591SOL     OW14135   1.891   3.554   4.824  0.0231 -0.5093 -0.5438
 3591SOL    HW214136   1.799   3.530   4.814 -0.5372  1.2157  0.0778
 3591SOL    HW314137   1.897   3.642   4.789  0.9890  0.1880  1.2553
 3591SOL    MW414138   1.880   3.562   4.818 -0.4841 -0.7067  0.3455
 3592SOL     OW14139   3.447   1.672   5.391  0.1769 -0.8166  0.4946
 3592SOL    HW214140   3.449   1.650   5.484 -0.3312  0.4406  0.8193
 3592SOL    HW314141   3.372   1.624   5.357 -0.7444  0.1073  1.1330
 3592SOL    MW414142   3.437   1.663   5.399  0.2477 -0.3569 -0.5201
 3593SOL     OW14143   4.746   2.570   3.870  0.4989 -0.3448  0.1851
 3593SOL    HW214144   4.833   2.597   3.838  0.3444 -0.5111 -0.3898
 3593SOL    HW314145   4.715   2.646   3.920  0.9252 -0.2405  0.3042
 3593SOL    MW414146   4.754   2.584   3.872  0.0843 -0.5641  0.4080
 3594SOL     OW14147   0.939   3.640   0.116 -0.0047  0.6884 -0.3571
 3594SOL    HW214148   0.938   3.574   0.047 -0.4394 -1.1647  1.3258
 3594SOL    HW314149   0.901   3.718   0.076  0.7520  0.0246 -2.4919
 3594SOL    MW414150   0.934   3.641   0.102 -0.0867 -0.0977 -0.3393
 3595SOL     OW14151   4.440   1.250   5.462 -0.3626 -0.0524  0.2003
 3595SOL    HW214152   4.412   1.167   5.423  0.7431  0.8184 -2.6517
 3595SOL    HW314153   4.523   1.229   5.505 -0.4071 -0.5480  0.0572
 3595SOL    MW414154   4.447   1.236   5.462 -0.1844  1.1613  0.1640
 3596SOL     OW14155   3.476   3.384   0.144  0.1452  0.0380  0.4545
 3596SOL    HW214156   3.416   3.310   0.136 -0.2963  0.5312 -1.0574
 3596SOL    HW314157   3.478   3.423   0.057 -0.1980  2.2613  1.3764
 3596SOL    MW414158   3.468   3.379   0.132 -0.5564 -0.8890 -0.1170
 3597SOL     OW14159   5.220   3.424   2.748  0.5446  0.0646 -0.1430
 3597SOL    HW214160   5.176   3.442   2.665  1.1278  0.0088 -0.4727
 3597SOL    HW314161   5.189   3.492   2.808 -0.0548 -0.0292 -0.3369
 3597SOL    MW414162   5.210   3.435   2.745 -0.2930  0.1539 -0.6036
 3598SOL     OW14163   5.382   4.205   5.426  0.5650 -0.3918  0.0812
 3598SOL    HW214164   5.344   4.292   5.440  0.7244  0.2648 -2.9222
 3598SOL    HW314165   5.313   4.154   5.384  1.2733 -0.9100 -0.4923
 3598SOL    MW414166   5.368   4.210   5.423  0.0320  0.3261  0.0574
 3599SOL     OW14167   4.282   3.415   1.678 -0.3685  0.0911 -0.3540
 3599SOL    HW214168   4.363   3.442   1.635  0.5601 -0.1563  1.2021
 3599SOL    HW314169   4.222   3.488   1.663  0.1760  0.3497 -1.3706
 3599SOL    MW414170   4.285   3.428   1.670 -0.2781  0.0340 -0.0907
 3600SOL     OW14171   1.861   1.237   0.631  0.5421 -0.6561 -0.7220
 3600SOL    HW214172   1.905   1.322   0.623 -0.6795  0.0512 -0.2346
 3600SOL    HW314173   1.932   1.173   0.635  1.5685  0.5087  0.8642
 3600SOL    MW414174   1.876   1.240   0.631 -0.5231 -0.1501 -0.0170
 3601SOL     OW14175   4.388   2.255   4.836  0.1252  0.1130 -0.9904
 3601SOL    HW214176   4.478   2.227   4.853 -0.3245 -0.1275  1.3373
 3601SOL    HW314177   4.393   2.350   4.826  0.9072 -0.1179 -3.2793
 3601SOL    MW414178   4.400   2.263   4.837  0.3627  0.0601  0.5184
 3602SOL     OW14179   1.607   2.928   3.367  0.2324 -0.4855 -0.3169
 3602SOL    HW214180   1.566   2.954   3.285  0.0389 -0.2448 -0.1482
 3602SOL    HW314181   1.560   2.849   3.394 -0.7331  0.2744  0.3186
 3602SOL    MW414182   1.595   2.921   3.360 -0.1006 -0.3467 -0.1686
 3603SOL     OW14183   2.081   6.273   2.720 -0.0370 -0.1978 -0.4590
 3603SOL    HW214184   1.994   6.244   2.750  0.5713 -1.6672 -0.0409
 3603SOL    HW314185   2.120   6.313   2.798  0.4838 -1.5033 -0.0430
 3603SOL    MW414186   2.074   6.275   2.734 -0.2419  0.3406 -0.0276
 3604SOL     OW14187   4.883   1.794   3.297 -0.2979  0.7104  0.1426
 3604SOL    HW214188   4.938   1.779   3.374  0.7840 -1.8746 -1.0198
 3604SOL    HW314189   4.841   1.878   3.314  3.5073  2.6182  1.4275
 3604SOL    MW414190   4.885   1.804   3.310  0.3607  0.2410 -0.3611
 3605SOL     OW14191   5.293   0.262   0.471 -0.1552 -0.1582 -0.4694
 3605SOL    HW214192   5.349   0.200   0.425  3.6207  2.5567 -0.0154
 3605SOL    HW314193   5.260   0.214   0.547  1.9110 -1.8324 -0.5594
 3605SOL    MW414194   5.296   0.248   0.475 -0.0901 -0.3361  0.2117
 3606SOL     OW14195   2.465   1.182   6.093  0.3588 -0.0653 -0.1821
 3606SOL    HW214196   2.486   1.236   6.169  0.2771  1.9709 -1.5544
 3606SOL    HW314197   2.548   1.140   6.069  0.8086  0.7750 -0.1114
 3606SOL    MW414198   2.478   1.183   6.100 -0.4276 -0.9134  0.1232
 3607SOL     OW14199   4.001   4.639   4.283  0.1687  0.2137  1.0459
 3607SOL    HW214200   3.963   4.551   4.288 -1.1021  0.6801  0.1514
 3607SOL    HW314201   3.928   4.695   4.258  1.2741  1.3133  0.1527
 3607SOL    MW414202   3.986   4.635   4.280  0.0497  0.4810  0.1118
 3608SOL     OW14203   5.296   4.668   0.351 -0.8205 -0.1004  0.6103
 3608SOL    HW214204   5.295   4.761   0.373 -0.4745  0.2552 -0.7579
 3608SOL    HW314205   5.230   4.659   0.282 -1.4014 -1.0318  1.2568
 3608SOL    MW414206   5.287   4.679   0.345 -0.4683  0.4248 -0.0583
 3609SOL     OW14207   2.823   4.515   2.808  0.0853  0.4120 -0.0854
 3609SOL    HW214208   2.855   4.533   2.720  1.3170  1.6335  0.5863
 3609SOL    HW314209   2.901   4.494   2.858 -0.6168 -0.3842  0.7070
 3609SOL    MW414210   2.837   4.515   2.803 -0.4770 -0.2054 -0.0274
 3610SOL     OW14211   1.497   5.108   5.700  0.2789  0.5891  0.0889
 3610SOL    HW214212   1.582   5.117   5.657  0.3459  0.6185  0.2277
 3610SOL    HW314213   1.516   5.065   5.783  0.4384  2.3619  1.0248
 3610SOL    MW414214   1.510   5.103   5.705 -0.2841 -0.6512  0.2073
 3611SOL     OW14215   0.926   1.853   0.401 -0.1345 -0.2283  0.0590
 3611SOL    HW214216   0.870   1.927   0.377  1.2712  0.4892 -1.1977
 3611SOL    HW314217   0.935   1.861   0.496  0.4833  1.6296 -0.1102
 3611SOL    MW414218   0.920   1.864   0.411 -0.5063 -0.2747 -0.4293
 3612SOL     OW14219   2.077   6.217   3.144 -0.0623 -0.2472 -0.3007
 3612SOL    HW214220   2.091   6.152   3.213  2.0300 -0.3203 -0.7262
 3612SOL    HW314221   2.054   6.166   3.066  1.2629 -0.4841 -0.5549
 3612SOL    MW414222   2.076   6.202   3.143  0.3431  0.5832  0.4999
 3613SOL     OW14223   5.185   3.579   1.988 -0.2333  0.3289 -0.1064
 3613SOL    HW214224   5.169   3.516   1.917  0.4895 -0.2648  0.2491
 3613SOL    HW314225   5.216   3.658   1.943  1.3297 -0.4113 -0.4036
 3613SOL    MW414226   5.187   3.581   1.972  0.4683 -0.3583  0.0917
 3614SOL     OW14227   0.627   0.124   5.528 -0.5067 -0.5136  0.5066
 3614SOL    HW214228   0.692   0.098   5.463  0.0633 -1.0674  1.2664
 3614SOL    HW314229   0.633   0.219   5.532 -0.4845 -0.4850 -0.1782
 3614SOL    MW414230   0.637   0.133   5.520 -0.1431  0.2222  0.1787
 3615SOL     OW14231   4.092   6.135   2.576  0.1703  0.1028  0.4281
 3615SOL    HW214232   4.058   6.219   2.546  1.5127  0.8060  0.7712
 3615SOL    HW314233   4.017   6.076   2.573 -0.8035  1.3068  0.1819
 3615SOL    MW414234   4.078   6.138   2.572 -0.0961  0.2441  0.1829
 3616SOL     OW14235   2.494   2.255   2.603  0.7463  0.6518 -0.2079
 3616SOL    HW214236   2.576   2.298   2.579  2.1108  0.9806  4.1600
 3616SOL    HW314237   2.461   2.307   2.676 -2.3157 -0.7358 -0.4606
 3616SOL    MW414238   2.500   2.268   2.609  0.0655 -0.0677 -0.7428
 3617SOL     OW14239   3.185   3.924   0.188  0.0653  0.0392 -0.0504
 3617SOL    HW214240   3.248   3.996   0.189 -0.4817  0.5219 -0.0222
 3617SOL    HW314241   3.111   3.956   0.240 -1.3730  0.5509 -2.2849
 3617SOL    MW414242   3.183   3.938   0.195  0.5065 -0.1229 -0.0296
 3618SOL     OW14243   3.631   6.371   6.368 -0.1411  0.5471  0.1402
 3618SOL    HW214244   3.596   6.458   6.386 -0.6546  0.8222 -1.9479
 3618SOL    HW314245   3.726   6.383   6.370 -0.2073  1.1289 -0.0045
 3618SOL    MW414246   3.639   6.384   6.371  0.0684  0.4472  0.3674
 3619SOL     OW14247   5.535   0.288   4.954 -0.3303 -0.2077  0.4806
 3619SOL    HW214248   5.516   0.316   4.865 -0.4080  0.6745  0.7647
 3619SOL    HW314249   5.477   0.213   4.969  0.2208 -0.8282 -0.4583
 3619SOL    MW414250   5.525   0.282   4.944  0.7964 -0.0530  0.1524
 3620SOL     OW14251   6.064   4.241   2.417 -0.1558  0.1073 -0.1595
 3620SOL    HW214252   5.969   4.245   2.426 -0.1513 -0.6254  0.3248
 3620SOL    HW314253   6.097   4.257   2.505  0.1442 -0.2770 -0.1985
 3620SOL    MW414254   6.056   4.243   2.430  0.0635  0.7497  0.7599
 3621SOL     OW14255   3.680   3.960   1.699 -0.8188 -0.0343  0.1022
 3621SOL    HW214256   3.631   3.907   1.762 -2.0394  1.1860  0.2328
 3621SOL    HW314257   3.631   3.950   1.618 -1.0460  0.8651  0.1267
 3621SOL    MW414258   3.667   3.951   1.697  0.5205  0.0718  0.4925
 3622SOL     OW14259   4.774   4.098   3.781 -0.5139  0.5331 -0.2903
 3622SOL    HW214260   4.815   4.067   3.700  0.4511 -0.7411  0.6364
 3622SOL    HW314261   4.694   4.047   3.789 -0.1697  0.0260 -0.0179
 3622SOL    MW414262   4.769   4.087   3.772  0.3026 -0.0149 -0.8594
 3623SOL     OW14263   5.613   1.474   3.928  0.1546 -0.5840  0.0630
 3623SOL    HW214264   5.534   1.421   3.930  0.6556 -1.3575 -0.4628
 3623SOL    HW314265   5.608   1.523   3.846  0.3190 -0.7781 -0.0621
 3623SOL    MW414266   5.602   1.474   3.918  0.1371  0.3641  0.4795
 3624SOL     OW14267   2.778   1.454   1.836 -0.1692 -0.0199 -0.2951
 3624SOL    HW214268   2.711   1.417   1.894 -0.6952  0.6315 -0.4733
 3624SOL    HW314269   2.856   1.401   1.853 -0.7858 -0.9450 -0.2544
 3624SOL    MW414270   2.780   1.442   1.846  0.0337 -0.3334 -0.7232
 3625SOL     OW14271   3.663   4.880   0.933 -0.2472  0.0079 -0.2773
 3625SOL    HW214272   3.567   4.879   0.925 -0.2290 -0.6955 -0.4793
 3625SOL    HW314273   3.691   4.794   0.900  0.4666  0.2627 -0.3563
 3625SOL    MW414274   3.654   4.868   0.928 -0.4078 -0.3410  0.1189
 3626SOL     OW14275   3.289   0.543   5.383 -0.2184  0.2052 -0.3440
 3626SOL    HW214276   3.326   0.561   5.296  2.2395  1.7758  0.8961
 3626SOL    HW314277   3.213   0.601   5.389  0.4377  1.1637 -0.9563
 3626SOL    MW414278   3.284   0.553   5.372 -0.4452 -0.2474 -0.1634
 3627SOL     OW14279   5.962   5.944   2.265 -0.6114  0.1404 -0.8110
 3627SOL    HW214280   5.928   5.878   2.325 -0.1126 -2.1132 -2.8548
 3627SOL    HW314281   5.898   5.946   2.193  1.0704 -0.6840 -2.4121
 3627SOL    MW414282   5.949   5.936   2.263 -0.2413  0.1756  0.1136
 3628SOL     OW14283   4.908   0.960   4.245  0.0937 -0.1920  0.0224
 3628SOL    HW214284   4.822   0.955   4.285 -0.3589  1.0445 -0.7161
 3628SOL    HW314285   4.933   1.052   4.255  0.2243  0.0220 -1.9448
 3628SOL    MW414286   4.900   0.972   4.252 -0.0591 -0.5348 -0.6154
 3629SOL     OW14287   3.621   0.847   2.415  0.4253  0.4886 -0.0086
 3629SOL    HW214288   3.695   0.787   2.418  0.2623  0.2551 -0.5846
 3629SOL    HW314289   3.547   0.795   2.446  0.2265  0.3040 -0.7900
 3629SOL    MW414290   3.621   0.833   2.420  0.5264  0.9673 -0.0601
 3630SOL     OW14291   4.877   0.310   1.934 -1.0059  0.2593 -0.3348
 3630SOL    HW214292   4.797   0.288   1.886 -0.6987  0.0631 -0.7645
 3630SOL    HW314293   4.948   0.287   1.874 -0.6124 -0.0794  0.2484
 3630SOL    MW414294   4.876   0.304   1.919  0.5031 -0.1423  0.0308
 3631SOL     OW14295   3.905   3.879   4.699 -0.1561  0.5166 -0.0435
 3631SOL    HW214296   3.911   3.975   4.700  1.8255  0.4565 -1.5077
 3631SOL    HW314297   3.898   3.855   4.792 -1.5073  2.0674  0.3087
 3631SOL    MW414298   3.905   3.888   4.712  1.0294  0.1934  0.2869
 3632SOL     OW14299   4.591   0.447   3.577  0.5253 -0.1456 -0.2520
 3632SOL    HW214300   4.522   0.401   3.529 -0.5065  0.9418  0.1292
 3632SOL    HW314301   4.672   0.422   3.533 -0.1694 -0.9778 -1.0986
 3632SOL    MW414302   4.592   0.437   3.565  0.0400  0.2627  0.2485
 3633SOL     OW14303   4.354   2.494   6.184  0.3688  0.1936  0.2169
 3633SOL    HW214304   4.326   2.580   6.152  1.9706 -0.4391 -3.3696
 3633SOL    HW314305   4.273   2.445   6.196 -0.5139  1.8517  1.4460
 3633SOL    MW414306   4.340   2.499   6.182  0.3544 -0.1425  0.0843
 3634SOL     OW14307   4.192   3.539   3.576 -0.4052 -0.0887 -0.2911
 3634SOL    HW214308   4.218   3.583   3.657  0.1349 -0.6874 -0.1305
 3634SOL    HW314309   4.270   3.540   3.521 -0.6805  0.0394 -0.6863
 3634SOL    MW414310   4.206   3.545   3.580  0.3774 -0.3938  0.5189
 3635SOL     OW14311   0.194   2.995   2.563 -0.1963 -0.0969 -0.2173
 3635SOL    HW214312   0.226   2.915   2.520 -1.1602  0.0766 -1.3193
 3635SOL    HW314313   0.186   2.971   2.655 -0.8640 -1.4243 -0.5937
 3635SOL    MW414314   0.197   2.981   2.569  1.2128 -0.1310  0.2475
 3636SOL     OW14315   4.442   5.277   3.524  0.7529 -0.4993 -0.1329
 3636SOL    HW214316   4.378   5.337   3.560  3.3934  1.2988  1.9513
 3636SOL    HW314317   4.438   5.200   3.581  0.1778 -0.5994 -0.3007
 3636SOL    MW414318   4.433   5.275   3.536  0.1764 -0.2923  0.3846
 3637SOL     OW14319   0.394   1.950   0.704 -0.4868  0.3882 -0.2777
 3637SOL    HW214320   0.332   1.884   0.673  0.0304 -0.0217 -0.4447
 3637SOL    HW314321   0.405   2.009   0.630  0.3275 -0.2827 -0.7027
 3637SOL    MW414322   0.387   1.949   0.690 -0.5148  0.7246 -0.5279
 3638SOL     OW14323   5.961   5.043   5.054 -0.1227  0.0729  0.2925
 3638SOL    HW214324   6.042   5.083   5.023  0.1651 -1.0892 -0.5226
 3638SOL    HW314325   5.911   5.026   4.974 -0.6911 -0.2334  0.7072
 3638SOL    MW414326   5.965   5.046   5.040 -0.2595 -0.6582  0.7052
 3639SOL     OW14327   6.187   4.300   6.244 -0.3561  0.1100 -0.4099
 3639SOL    HW214328   6.144   4.253   6.316  1.8228  1.0741  1.6616
 3639SOL    HW314329   6.258   4.241   6.216  0.2952  0.7395 -0.1009
 3639SOL    MW414330   6.191   4.286   6.250  0.2137  0.7909 -0.4666
 3640SOL     OW14331   0.836   5.876   1.349  0.3629  0.0218  0.2121
 3640SOL    HW214332   0.767   5.824   1.390  0.0973 -0.8980 -1.3015
 3640SOL    HW314333   0.881   5.919   1.422 -0.8294 -0.5792  1.3391
 3640SOL    MW414334   0.833   5.875   1.364  0.2160  0.0786 -0.0713
 3641SOL     OW14335   1.520   4.509   6.311 -0.1671  0.4358 -0.3927
 3641SOL    HW214336   1.568   4.570   6.367 -1.0235  1.0576 -0.3125
 3641SOL    HW314337   1.534   4.423   6.352  0.7318  0.6252 -0.2911
 3641SOL    MW414338   1.528   4.506   6.324 -1.1304  0.0925 -0.3881
 3642SOL     OW14339   0.427   5.520   6.031  0.2349  0.0102  0.4426
 3642SOL    HW214340   0.408   5.459   6.102  0.9831  0.0313  0.6683
 3642SOL    HW314341   0.438   5.604   6.073 -0.7967  0.3270  0.1300
 3642SOL    MW414342   0.426   5.523   6.046  0.2618  0.0989 -0.6765
 3643SOL     OW14343   6.285   1.075   3.387  0.0161 -0.2408  0.1022
 3643SOL    HW214344   6.378   1.098   3.393 -0.3636  1.4716  0.1861
 3643SOL    HW314345   6.241   1.145   3.436 -1.2432 -1.7578  1.2218
 3643SOL    MW414346   6.291   1.088   3.395 -0.9368  0.5503 -0.4666
 3644SOL     OW14347   1.697   0.726   4.602 -0.0026  0.0696 -0.1498
 3644SOL    HW214348   1.772   0.751   4.656  0.9847 -1.3613 -0.7990
 3644SOL    HW314349   1.620   0.746   4.657  0.8550  1.1143  0.7140
 3644SOL    MW414350   1.696   0.732   4.617 -0.3735 -0.6057 -0.0944
 3645SOL     OW14351   2.308   5.972   0.570 -0.0053  0.8953 -0.0456
 3645SOL    HW214352   2.364   6.000   0.498 -0.3667  0.2464 -0.6014
 3645SOL    HW314353   2.223   5.955   0.529  0.0580 -0.4693  0.3339
 3645SOL    MW414354   2.304   5.973   0.555  0.3493 -0.7836 -0.0182
 3646SOL     OW14355   5.981   4.281   3.058  0.0195  0.0996  0.2223
 3646SOL    HW214356   6.055   4.324   3.014  0.0654 -0.0402  0.1644
 3646SOL    HW314357   5.937   4.231   2.989 -0.4044  0.5518  0.1566
 3646SOL    MW414358   5.985   4.280   3.043  0.4304 -0.8351  0.3931
 3647SOL     OW14359   3.918   3.720   3.519  0.4626  0.2312 -0.3939
 3647SOL    HW214360   3.929   3.798   3.466  1.4679  0.0707 -0.4456
 3647SOL    HW314361   3.997   3.716   3.573 -0.3271  0.1492  0.8044
 3647SOL    MW414362   3.930   3.730   3.519  0.2859 -0.1000  0.4247
 3648SOL     OW14363   5.512   3.175   5.212  0.4898 -0.6398 -0.2950
 3648SOL    HW214364   5.484   3.162   5.121  0.5552 -1.3824 -0.2084
 3648SOL    HW314365   5.581   3.241   5.206  2.3963 -2.6137 -1.1088
 3648SOL    MW414366   5.517   3.182   5.199  0.4341 -0.2769  0.2864
 3649SOL     OW14367   1.369   4.337   0.157  0.1968 -0.4610  0.3839
 3649SOL    HW214368   1.441   4.301   0.105  1.0750 -0.6713  1.6890
 3649SOL    HW314369   1.352   4.270   0.223 -0.7201 -0.1004  0.5194
 3649SOL    MW414370   1.376   4.323   0.159 -0.2522  0.1179  0.3770
 3650SOL     OW14371   0.310   2.467   2.442 -0.1884 -0.1223 -0.0964
 3650SOL    HW214372   0.288   2.439   2.354 -0.0437  0.1694 -0.2268
 3650SOL    HW314373   0.405   2.455   2.448 -0.2217 -0.3063  0.0783
 3650SOL    MW414374   0.320   2.462   2.431 -0.0151 -0.3329 -0.6526
 3651SOL     OW14375   1.467   0.476   3.857 -0.0095  0.9082 -0.5333
 3651SOL    HW214376   1.559   0.451   3.860  0.1500  1.5460  1.3191
 3651SOL    HW314377   1.422   0.410   3.909 -0.7304  0.2324 -1.9540
 3651SOL    MW414378   1.473   0.464   3.864  0.1206  0.0759  0.2506
 3652SOL     OW14379   0.041   2.781   5.169  0.3281 -0.0158  0.0499
 3652SOL    HW214380   0.072   2.871   5.165  1.9829 -0.5543 -0.0934
 3652SOL    HW314381   0.030   2.755   5.077 -1.2750  0.3835  0.1089
 3652SOL    MW414382   0.044   2.789   5.156  0.1974 -0.0271 -0.1223
 3653SOL     OW14383   1.489   0.450   6.040  0.3755 -0.6982  0.2853
 3653SOL    HW214384   1.438   0.508   5.984 -0.8504 -1.8824  0.1376
 3653SOL    HW314385   1.580   0.466   6.014 -0.0485  0.0320 -0.8188
 3653SOL    MW414386   1.495   0.459   6.029  0.2386 -0.0354  0.4140
 3654SOL     OW14387   3.438   1.054   5.739 -0.2329 -0.4951  0.2578
 3654SOL    HW214388   3.447   1.016   5.652 -0.1091  0.8121 -0.3342
 3654SOL    HW314389   3.411   0.981   5.795 -1.6000 -1.1101 -1.1210
 3654SOL    MW414390   3.435   1.040   5.735  0.4870 -0.1205 -0.0209
 3655SOL     OW14391   1.681   1.155   0.390 -0.3912  0.1757 -0.4030
 3655SOL    HW214392   1.672   1.205   0.310 -1.4199 -0.8558 -0.9640
 3655SOL    HW314393   1.739   1.207   0.445  0.0888  1.0427 -1.6927
 3655SOL    MW414394   1.687   1.168   0.387 -0.0969 -0.2252 -0.1110
 3656SOL     OW14395   4.250   0.620   1.296 -0.5670  0.3277  0.2067
 3656SOL    HW214396   4.249   0.570   1.378  0.4876  1.8950  1.2482
 3656SOL    HW314397   4.193   0.695   1.313 -0.0113  0.8847 -0.3372
 3656SOL    MW414398   4.242   0.623   1.309 -0.0217 -0.0574 -0.6090
 3657SOL     OW14399   3.912   5.540   1.687 -0.0310 -0.2073  0.1464
 3657SOL    HW214400   3.988   5.488   1.660  1.9122  3.0360 -1.3814
 3657SOL    HW314401   3.894   5.596   1.611 -1.1634  2.1083  1.9837
 3657SOL    MW414402   3.920   5.541   1.673  0.9270 -0.1568 -0.2251
 3658SOL     OW14403   0.859   0.794   0.356  0.0213 -0.4274 -0.3166
 3658SOL    HW214404   0.779   0.757   0.395 -0.2719  1.6416  1.2301
 3658SOL    HW314405   0.831   0.823   0.269 -0.9392  0.2752  0.2043
 3658SOL    MW414406   0.844   0.793   0.350 -0.3304  0.0578 -0.3295
 3659SOL     OW14407   0.602   5.307   4.479 -0.4203 -0.4575  0.7135
 3659SOL    HW214408   0.602   5.366   4.403  0.0704 -1.2008  0.1257
 3659SOL    HW314409   0.580   5.221   4.442 -1.5923 -0.5739  1.6255
 3659SOL    MW414410   0.599   5.304   4.464  0.7531 -0.2136  0.2246
 3660SOL     OW14411   4.559   4.894   3.003 -0.3704  0.4323  0.2739
 3660SOL    HW214412   4.620   4.956   2.963  1.3393 -0.5849  1.2159
 3660SOL    HW314413   4.495   4.950   3.047 -0.1812  1.5273 -0.7696
 3660SOL    MW414414   4.558   4.910   3.004  0.3456  0.2420 -0.4068
 3661SOL     OW14415   6.216   0.443   3.038  0.1112 -0.0361 -0.5262
 3661SOL    HW214416   6.132   0.480   3.067  0.0442 -1.0881  0.7294
 3661SOL    HW314417   6.195   0.352   3.015  1.0062 -0.5122  0.4479
 3661SOL    MW414418   6.202   0.436   3.039 -0.4687  0.1655  0.2044
 3662SOL     OW14419   0.300   5.032   1.973  0.2134  0.2325  0.2564
 3662SOL    HW214420   0.362   5.085   1.923 -1.4038  1.1122 -0.8855
 3662SOL    HW314421   0.229   5.013   1.912 -0.6966 -0.6833  1.5482
 3662SOL    MW414422   0.299   5.036   1.959 -0.6125  0.0934  0.1642
 3663SOL     OW14423   2.699   2.597   1.367  0.3731 -0.3726  0.1328
 3663SOL    HW214424   2.745   2.677   1.390 -0.2250  0.3230 -0.9683
 3663SOL    HW314425   2.696   2.545   1.448  2.3643 -0.1034  0.4075
 3663SOL    MW414426   2.705   2.600   1.380  0.3881 -0.2214 -0.2251
 3664SOL     OW14427   4.763   4.621   1.799  0.3272  0.4054 -0.5435
 3664SOL    HW214428   4.722   4.708   1.797  0.3348  0.4212 -0.1402
 3664SOL    HW314429   4.836   4.631   1.861  0.8454  0.3373 -1.1408
 3664SOL    MW414430   4.768   4.634   1.807  0.4038  0.1889 -1.3767
 3665SOL     OW14431   3.437   1.871   1.610 -0.1284  0.6371 -0.3765
 3665SOL    HW214432   3.460   1.963   1.596 -1.0009  0.9811  0.3877
 3665SOL    HW314433   3.349   1.862   1.572  0.0254  0.0628 -0.6157
 3665SOL    MW414434   3.428   1.882   1.603  0.5723  0.5508 -0.4230
 3666SOL     OW14435   0.057   1.870   4.764 -0.0613 -0.3389 -0.0869
 3666SOL    HW214436   0.068   1.885   4.858  0.8897  1.3260 -0.4280
 3666SOL    HW314437   0.115   1.796   4.745  0.6099  0.0421  0.4389
 3666SOL    MW414438   0.066   1.862   4.774  0.3851 -0.4890 -0.2102
 3667SOL     OW14439   0.272   4.457   4.641 -0.4969  0.5661 -0.3065
 3667SOL    HW214440   0.218   4.470   4.719 -0.7450  0.4566 -0.4584
 3667SOL    HW314441   0.294   4.364   4.641  0.8114  0.8447  0.4750
 3667SOL    MW414442   0.268   4.447   4.651 -0.4835 -0.1189 -0.0015
 3668SOL     OW14443   3.974   3.877   0.880  0.0971  0.2844 -0.3981
 3668SOL    HW214444   4.047   3.847   0.826 -0.9019 -2.1329 -0.5407
 3668SOL    HW314445   3.984   3.972   0.883  3.8326  0.0077  0.5209
 3668SOL    MW414446   3.985   3.886   0.873  0.4393 -0.2751 -0.6358
 3669SOL     OW14447   0.615   0.011   0.643  0.4425 -0.4812  0.0539
 3669SOL    HW214448   0.553   0.066   0.690 -0.2365 -1.4922  0.3833
 3669SOL    HW314449   0.648  -0.051   0.708  1.5442 -0.1845 -0.1995
 3669SOL    MW414450   0.611   0.010   0.658 -0.1987  0.0608  0.0028
 3670SOL     OW14451   3.380   0.312   1.758  0.7517  0.3289  0.3711
 3670SOL    HW214452   3.352   0.228   1.720  1.8669 -0.0583  0.3660
 3670SOL    HW314453   3.337   0.378   1.703 -1.7066 -0.1888  1.5463
 3670SOL    MW414454   3.370   0.309   1.746  0.0709  0.7044  0.0878
 3671SOL     OW14455   5.097   4.195   4.746  0.0773  0.3755  0.0948
 3671SOL    HW214456   5.115   4.215   4.838  2.3301 -0.1569 -0.1812
 3671SOL    HW314457   5.057   4.275   4.712 -1.1901  0.4344  1.6123
 3671SOL    MW414458   5.094   4.208   4.753  0.7462  0.3107 -0.1312
 3672SOL     OW14459   4.210   5.694   1.876  0.1608  0.0470  0.2845
 3672SOL    HW214460   4.164   5.760   1.928  1.5029  0.6190  0.7667
 3672SOL    HW314461   4.176   5.610   1.909 -1.6960  0.4447 -0.4569
 3672SOL    MW414462   4.199   5.692   1.887  0.7460  0.2972  0.4501
 3673SOL     OW14463   0.893   4.410   2.112  0.1093  0.6354  0.4594
 3673SOL    HW214464   0.880   4.504   2.097 -0.8434  0.3823 -0.4809
 3673SOL    HW314465   0.894   4.401   2.207  1.2293  1.7150  0.5725
 3673SOL    MW414466   0.891   4.422   2.122 -0.2119  0.1550  0.2039
 3674SOL     OW14467   3.978   1.610   4.862  0.5578  0.0626 -0.1177
 3674SOL    HW214468   4.072   1.627   4.869  0.3963  0.8375  0.3039
 3674SOL    HW314469   3.938   1.669   4.927 -0.2132 -0.2718 -0.2781
 3674SOL    MW414470   3.985   1.620   4.871  0.0195  0.2457  0.0028
 3675SOL     OW14471   4.515   5.540   6.091  0.0282 -0.0677 -0.4927
 3675SOL    HW214472   4.582   5.549   6.023  0.3516  0.2944 -0.1310
 3675SOL    HW314473   4.548   5.471   6.148  0.2770  0.3618 -0.1091
 3675SOL    MW414474   4.528   5.532   6.090  0.2696 -0.2767 -0.2443
 3676SOL     OW14475   4.634   2.450   5.220 -1.2564  0.0708  0.0449
 3676SOL    HW214476   4.699   2.496   5.166 -0.1372 -1.9696 -0.4675
 3676SOL    HW314477   4.550   2.484   5.191 -0.4774  2.4992  0.4277
 3676SOL    MW414478   4.632   2.460   5.209 -0.9915  0.2240  0.3156
 3677SOL     OW14479   4.071   5.312   4.160  0.2798 -0.1177  0.5730
 3677SOL    HW214480   4.070   5.403   4.130 -2.1023 -0.5854 -1.0474
 3677SOL    HW314481   4.028   5.315   4.246  2.2977  0.5073  1.6415
 3677SOL    MW414482   4.065   5.324   4.168  0.0613  0.4536  0.1180
 3678SOL     OW14483   1.866   4.637   3.881 -0.2666  0.1643 -0.1406
 3678SOL    HW214484   1.793   4.603   3.829 -0.2157  1.1069 -0.8614
 3678SOL    HW314485   1.944   4.596   3.843 -0.3372 -0.1011  0.0001
 3678SOL    MW414486   1.866   4.627   3.869 -0.5662 -0.0453 -0.6130
 3679SOL     OW14487   0.330   4.233   1.932  0.6184  0.1976  0.0040
 3679SOL    HW214488   0.386   4.245   1.855  0.0157  0.5166 -0.3928
 3679SOL    HW314489   0.241   4.241   1.898  0.3566  1.1051  0.8667
 3679SOL    MW414490   0.326   4.235   1.917 -0.6200  0.3658  0.3155
 3680SOL     OW14491   5.591   1.146   3.761  0.2009  0.3928 -0.0760
 3680SOL    HW214492   5.621   1.076   3.819 -1.1082 -1.6097 -1.6810
 3680SOL    HW314493   5.527   1.195   3.814 -0.8620 -1.2902  0.2701
 3680SOL    MW414494   5.587   1.144   3.776 -0.5761 -0.1534  0.0931
 3681SOL     OW14495   5.985   4.384   0.241  0.3334 -0.5212  0.3284
 3681SOL    HW214496   6.017   4.472   0.223 -2.3562  0.4746  0.0460
 3681SOL    HW314497   5.996   4.337   0.158 -0.0494  0.1623 -0.1154
 3681SOL    MW414498   5.991   4.389   0.227 -0.1673 -0.4806 -0.6148
 3682SOL     OW14499   3.415   2.697   6.083  0.0246  0.5322 -0.1520
 3682SOL    HW214500   3.331   2.666   6.116  0.8010 -0.3373  1.0793
 3682SOL    HW314501   3.421   2.660   5.994  0.2426 -1.6444  0.7088
 3682SOL    MW414502   3.405   2.688   6.075  0.2455  0.4489 -0.6327
 3683SOL     OW14503   4.800   1.300   4.929 -0.2957 -0.1670 -0.1171
 3683SOL    HW214504   4.894   1.310   4.914 -0.1927  0.4905  0.8828
 3683SOL    HW314505   4.770   1.388   4.952 -1.3585 -0.1653 -1.4007
 3683SOL    MW414506   4.809   1.313   4.930  0.3801  0.1261 -0.1950
 3684SOL     OW14507   1.257   6.176   3.873  0.4524  0.8253  0.3124
 3684SOL    HW214508   1.259   6.197   3.780  0.8347 -0.9513 -0.1252
 3684SOL    HW314509   1.341   6.134   3.890  0.0231  0.2987  1.2255
 3684SOL    MW414510   1.268   6.173   3.863 -0.3223 -0.0904  0.3412
 3685SOL     OW14511   5.964   4.936   5.941 -0.3430 -0.3936  0.3330
 3685SOL    HW214512   5.914   4.902   5.867 -1.1054  0.1445  0.5998
 3685SOL    HW314513   6.015   5.009   5.905  0.2871 -0.9540  0.0583
 3685SOL    MW414514   5.964   4.941   5.927  0.0109  0.1303 -0.1053
 3686SOL     OW14515   3.923   5.715   2.198 -0.3396 -0.4748 -0.0510
 3686SOL    HW214516   4.003   5.682   2.238  0.8606  0.5074 -1.5254
 3686SOL    HW314517   3.906   5.655   2.126  0.6806  0.8274 -1.4500
 3686SOL    MW414518   3.931   5.703   2.194  0.4324  0.0212 -0.1219
 3687SOL     OW14519   6.104   2.622   6.247  0.0092  0.2335 -0.1837
 3687SOL    HW214520   6.059   2.548   6.288  0.8796 -1.3581 -1.8981
 3687SOL    HW314521   6.052   2.642   6.169  1.0625 -0.2534 -1.0540
 3687SOL    MW414522   6.091   2.615   6.242  0.8000  0.1931 -0.3525
 3688SOL     OW14523   1.186   2.989   3.306 -0.0585  0.7366  0.1409
 3688SOL    HW214524   1.180   2.904   3.348  0.5542  0.7484  0.2627
 3688SOL    HW314525   1.108   2.994   3.251  0.7357 -0.6248 -1.1922
 3688SOL    MW414526   1.175   2.979   3.304  0.5393  0.1257 -0.7831
 3689SOL     OW14527   2.232   2.124   5.127  0.8032 -0.6132  0.2153
 3689SOL    HW214528   2.262   2.207   5.164  0.2041  0.0845 -0.7912
 3689SOL    HW314529   2.286   2.057   5.169  2.9435  0.4661 -0.6650
 3689SOL    MW414530   2.243   2.126   5.138 -0.6739 -0.2638 -0.4822
 3690SOL     OW14531   1.518   2.869   5.206  0.5799  0.4424 -0.2354
 3690SOL    HW214532   1.446   2.879   5.143  0.5675 -0.1204 -0.3163
 3690SOL    HW314533   1.512   2.947   5.261 -0.9830 -0.2491  0.6530
 3690SOL    MW414534   1.508   2.881   5.205 -0.3406  0.5459  0.3262
 3691SOL     OW14535   4.705   0.913   4.785  0.6143 -0.1695 -0.2263
 3691SOL    HW214536   4.703   0.821   4.756  1.4727 -0.5716  0.9295
 3691SOL    HW314537   4.744   0.910   4.872  0.2445  1.2625  0.0095
 3691SOL    MW414538   4.710   0.900   4.793 -0.4349 -0.2654 -0.5954
 3692SOL     OW14539   2.116   2.214   1.257 -0.2341 -0.4674 -0.3874
 3692SOL    HW214540   2.158   2.207   1.343 -1.3955 -2.6752  0.0771
 3692SOL    HW314541   2.036   2.264   1.274 -0.0757 -0.2292 -0.3414
 3692SOL    MW414542   2.111   2.220   1.270 -0.4336  0.1440 -0.1155
 3693SOL     OW14543   0.525   0.257   1.830 -0.8144  0.4005 -0.2244
 3693SOL    HW214544   0.531   0.199   1.906 -0.0880  1.9311  0.9387
 3693SOL    HW314545   0.437   0.294   1.835 -0.2942  1.5526  0.6988
 3693SOL    MW414546   0.514   0.254   1.841  0.6965 -0.0347  0.1043
 3694SOL     OW14547   0.390   4.898   4.206  0.3375  0.0392  0.7839
 3694SOL    HW214548   0.444   4.821   4.192 -0.1569 -0.4516  1.5288
 3694SOL    HW314549   0.383   4.938   4.119  1.4560 -0.1655  0.5799
 3694SOL    MW414550   0.396   4.893   4.193  0.2452 -0.0338  0.1663
 3695SOL     OW14551   6.232   2.222   0.118  0.4720  0.1486  0.4287
 3695SOL    HW214552   6.224   2.130   0.146  0.0174  0.1195  0.2229
 3695SOL    HW314553   6.218   2.272   0.199  1.6249  0.0263  0.7134
 3695SOL    MW414554   6.229   2.216   0.132  0.0366 -0.0470  0.0592
 3696SOL     OW14555   3.085   3.491   3.808 -0.7377 -0.4416 -0.0240
 3696SOL    HW214556   3.149   3.498   3.738 -0.8378 -0.7310 -0.1452
 3696SOL    HW314557   3.075   3.397   3.824  0.1338 -0.3531  1.1711
 3696SOL    MW414558   3.092   3.480   3.801  0.1166  0.5590 -0.2267
 3697SOL     OW14559   0.052   2.537   4.682 -0.0161  0.6306  0.0318
 3697SOL    HW214560   0.057   2.554   4.776  4.1315  2.3119 -0.3012
 3697SOL    HW314561   0.133   2.490   4.662 -0.7887  0.3267 -2.7372
 3697SOL    MW414562   0.063   2.533   4.692 -0.5584 -0.0332 -0.0867
 3698SOL     OW14563   1.661   3.307   0.452 -0.0518  0.2259 -0.5319
 3698SOL    HW214564   1.678   3.399   0.471  0.1108  0.5528 -2.1791
 3698SOL    HW314565   1.743   3.274   0.415 -0.1143 -0.5879  0.0145
 3698SOL    MW414566   1.674   3.315   0.450  0.0258  0.2814 -0.1363
 3699SOL     OW14567   0.094   1.927   2.397  0.5321 -0.2101  0.2301
 3699SOL    HW214568   0.102   1.833   2.385 -0.1131 -0.0258 -1.9871
 3699SOL    HW314569   0.182   1.956   2.420  0.8292 -1.2795  0.5150
 3699SOL    MW414570   0.107   1.919   2.399  0.1920 -0.4575 -0.2272
 3700SOL     OW14571   6.226   4.591   3.936 -0.8069  0.3902  0.0034
 3700SOL    HW214572   6.213   4.683   3.961  1.4736  0.8528 -0.3633
 3700SOL    HW314573   6.236   4.545   4.020 -0.5771  0.7032  0.1486
 3700SOL    MW414574   6.225   4.597   3.951  0.2527 -0.6224 -0.0537
 3701SOL     OW14575   5.929   3.829   1.323 -0.3761 -0.3524 -0.2029
 3701SOL    HW214576   5.909   3.764   1.255  0.2283 -1.4153  0.5952
 3701SOL    HW314577   5.888   3.794   1.402 -1.6394  1.2013 -0.1309
 3701SOL    MW414578   5.921   3.816   1.324 -0.0109  0.1030  0.4052
 3702SOL     OW14579   0.337   4.120   2.183 -0.9774 -0.1612  0.0721
 3702SOL    HW214580   0.287   4.182   2.237 -1.2361 -0.6401  0.3921
 3702SOL    HW314581   0.345   4.163   2.099  0.3794  1.0784  0.8063
 3702SOL    MW414582   0.331   4.134   2.179 -0.3018 -0.4703 -0.5694
 3703SOL     OW14583   5.757   2.777   0.862 -0.1944  0.0266 -0.3290
 3703SOL    HW214584   5.782   2.724   0.786  0.4952  0.1660 -0.2068
 3703SOL    HW314585   5.709   2.852   0.825  1.2156  0.7523 -0.7534
 3703SOL    MW414586   5.754   2.780   0.847  0.2500  0.0015  0.0850
 3704SOL     OW14587   5.816   4.241   4.912  0.2478 -0.0454 -0.2683
 3704SOL    HW214588   5.780   4.213   4.828 -0.6683 -0.5414  0.2787
 3704SOL    HW314589   5.864   4.321   4.891  1.2205 -0.8956 -1.5046
 3704SOL    MW414590   5.817   4.248   4.898 -0.0595 -0.2506 -0.4587
 3705SOL     OW14591   1.553   3.670   2.422  0.1695 -0.3586 -0.0707
 3705SOL    HW214592   1.531   3.614   2.497 -1.9357  1.4218  0.7557
 3705SOL    HW314593   1.648   3.673   2.421  0.3244 -2.8007  0.6954
 3705SOL    MW414594   1.562   3.663   2.432 -0.0951 -0.5498 -0.1942
 3706SOL     OW14595   4.957   2.078   2.461  0.0895  0.3606 -0.5571
 3706SOL    HW214596   4.882   2.127   2.493 -0.0708  0.7165 -1.4302
 3706SOL    HW314597   4.969   2.007   2.524  0.5714  1.7459  0.9392
 3706SOL    MW414598   4.949   2.075   2.473 -0.7744  0.2617  0.3007
 3707SOL     OW14599   5.921   3.695   2.573  0.2237 -0.1218  0.3308
 3707SOL    HW214600   5.848   3.634   2.586  1.4203 -1.7422 -0.3077
 3707SOL    HW314601   5.892   3.752   2.502  0.2513 -1.9517 -1.2362
 3707SOL    MW414602   5.907   3.694   2.565 -0.3031 -0.2312  0.0638
 3708SOL     OW14603   1.958   5.002   2.445  0.6744 -0.1470  0.2552
 3708SOL    HW214604   2.039   4.954   2.466  0.7862  0.6110  1.6538
 3708SOL    HW314605   1.960   5.079   2.501 -1.3871 -0.4810  0.8804
 3708SOL    MW414606   1.969   5.006   2.455 -0.1783 -0.4990  0.2061
 3709SOL     OW14607   0.185   6.150   1.377 -0.1150 -0.0442 -0.0768
 3709SOL    HW214608   0.098   6.167   1.341 -0.7443 -1.7548  0.5553
 3709SOL    HW314609   0.191   6.208   1.453 -0.8147 -0.0922  0.0225
 3709SOL    MW414610   0.174   6.160   1.383 -0.4738  0.3923  0.2535
 3710SOL     OW14611   3.656   3.900   5.170  0.2039 -0.4100 -0.7184
 3710SOL    HW214612   3.639   3.994   5.164  0.9449  0.2473  3.8904
 3710SOL    HW314613   3.596   3.860   5.106 -0.0340  3.0944 -2.9557
 3710SOL    MW414614   3.646   3.907   5.161 -0.3997 -0.4306 -0.5363
 3711SOL     OW14615   2.167   3.128   1.933 -0.0517  0.0746  0.1583
 3711SOL    HW214616   2.103   3.056   1.933  0.7754 -0.7121 -1.6342
 3711SOL    HW314617   2.155   3.170   2.018 -0.7880 -1.9856  1.1461
 3711SOL    MW414618   2.157   3.124   1.944  0.0484 -1.0497 -0.1476
 3712SOL     OW14619   2.684   6.020   2.526  0.4945 -0.1664  0.1756
 3712SOL    HW214620   2.710   5.928   2.523  0.7696 -0.0764 -0.8295
 3712SOL    HW314621   2.589   6.018   2.532  0.4996 -0.5208  0.1878
 3712SOL    MW414622   2.675   6.008   2.526 -0.1139 -0.2055  0.1633
 3713SOL     OW14623   4.157   5.775   5.329  0.1158  0.9495  0.3704
 3713SOL    HW214624   4.195   5.708   5.272 -0.6054  1.0408 -0.2367
 3713SOL    HW314625   4.098   5.726   5.387  0.1298  0.9737  0.4052
 3713SOL    MW414626   4.155   5.759   5.329 -0.2367 -0.8508  0.6199
 3714SOL     OW14627   6.057   1.779   3.630 -0.7891 -0.2663  0.2959
 3714SOL    HW214628   6.093   1.835   3.698 -1.6423  0.8529 -0.1387
 3714SOL    HW314629   5.978   1.742   3.669 -0.0821 -1.4005  0.6765
 3714SOL    MW414630   6.051   1.782   3.644 -0.1327 -0.1991  0.0033
 3715SOL     OW14631   0.740   0.738   4.612  0.4215 -0.8789 -0.4480
 3715SOL    HW214632   0.740   0.832   4.594 -1.7354 -0.5124  1.0441
 3715SOL    HW314633   0.739   0.732   4.708 -1.6187 -2.3079 -0.4986
 3715SOL    MW414634   0.740   0.750   4.622  0.1785  0.1149 -0.0289
 3716SOL     OW14635   1.755   3.748   1.265 -0.1079  0.0544 -0.4415
 3716SOL    HW214636   1.667   3.726   1.298 -0.1094  1.8893  0.9321
 3716SOL    HW314637   1.811   3.741   1.342  0.7451  0.0966 -1.0499
 3716SOL    MW414638   1.750   3.744   1.279  0.4364  0.1488 -0.2029
 3717SOL     OW14639   6.011   5.416   5.464  0.0029  0.5355 -0.4856
 3717SOL    HW214640   6.028   5.445   5.554  0.8244  0.5438 -0.6303
 3717SOL    HW314641   6.002   5.497   5.414  0.2937  0.5370 -0.5379
 3717SOL    MW414642   6.012   5.431   5.469  0.4848 -0.1344 -0.3245
 3718SOL     OW14643   3.997   4.616   1.727 -0.2735  0.5236  0.0662
 3718SOL    HW214644   4.037   4.658   1.804  0.7676  0.7295 -0.5562
 3718SOL    HW314645   3.941   4.683   1.689  0.2262  0.8673 -0.0787
 3718SOL    MW414646   3.995   4.630   1.732  0.3603  0.1676 -0.0207
 3719SOL     OW14647   3.046   2.789   1.174  0.0172 -0.2059 -0.5291
 3719SOL    HW214648   2.973   2.800   1.235 -0.2656 -1.0393 -0.7131
 3719SOL    HW314649   3.109   2.735   1.221  0.1803 -0.1299 -0.6579
 3719SOL    MW414650   3.045   2.784   1.188  0.0727 -0.4143 -0.4732
 3720SOL     OW14651   1.315   5.723   5.718 -0.0095  0.2315 -0.2541
 3720SOL    HW214652   1.230   5.751   5.681 -0.0281 -0.5566 -0.8267
 3720SOL    HW314653   1.380   5.770   5.666 -0.0641 -0.1547 -0.6768
 3720SOL    MW414654   1.312   5.733   5.706 -0.7145  0.0840  0.1890
 3721SOL     OW14655   1.584   2.403   1.211  0.7836  0.1188  0.0066
 3721SOL    HW214656   1.614   2.398   1.120 -0.8973  0.8973 -0.6200
 3721SOL    HW314657   1.563   2.495   1.224 -1.1968 -0.3632  0.4326
 3721SOL    MW414658   1.586   2.415   1.201 -0.1203 -0.0354  0.1453
 3722SOL     OW14659   0.186   6.168   5.396 -0.1782 -0.2518 -0.3111
 3722SOL    HW214660   0.227   6.238   5.344 -1.1245  0.0277 -0.7155
 3722SOL    HW314661   0.205   6.191   5.487  1.6326 -0.8254 -0.5059
 3722SOL    MW414662   0.194   6.181   5.401 -0.6361 -0.0334 -0.3329
 3723SOL     OW14663   3.498   4.551   4.344  0.5020  0.2975  0.0490
 3723SOL    HW214664   3.583   4.585   4.372  3.0332 -2.7113 -3.0649
 3723SOL    HW314665   3.475   4.603   4.267  0.6927 -0.3371 -0.4413
 3723SOL    MW414666   3.506   4.562   4.337 -0.7829 -0.2844  0.1460
 3724SOL     OW14667   0.740   5.227   6.285 -0.6726  0.4027  0.1048
 3724SOL    HW214668   0.668   5.233   6.348 -1.0350  0.6706 -0.3276
 3724SOL    HW314669   0.740   5.135   6.258  0.4144 -0.0645  1.5548
 3724SOL    MW414670   0.731   5.216   6.290  0.2450 -0.6500  0.0918
 3725SOL     OW14671   6.108   2.456   2.134  0.0417 -0.9213 -0.0121
 3725SOL    HW214672   6.098   2.441   2.228 -0.9250  0.5714  0.1648
 3725SOL    HW314673   6.167   2.531   2.128  0.7059 -1.4780 -0.6355
 3725SOL    MW414674   6.114   2.464   2.145  0.3367  0.4973  0.3563
 3726SOL     OW14675   4.816   2.179   1.347 -0.3957 -0.0418 -0.8282
 3726SOL    HW214676   4.823   2.270   1.374  0.6538  0.0211 -1.2339
 3726SOL    HW314677   4.758   2.138   1.411 -0.7308  0.8687 -0.5447
 3726SOL    MW414678   4.810   2.185   1.359 -0.2759  0.0267 -0.4679
 3727SOL     OW14679   2.875   3.141   0.999 -0.6398 -0.8454  0.1979
 3727SOL    HW214680   2.782   3.126   1.019 -0.7375 -0.7590 -0.1726
 3727SOL    HW314681   2.913   3.054   0.994 -0.4200 -0.8531  1.6075
 3727SOL    MW414682   2.868   3.128   1.001 -0.1750 -0.2885 -0.0234
 3728SOL     OW14683   4.506   0.445   6.364 -0.0751 -0.2913  0.2708
 3728SOL    HW214684   4.444   0.481   6.427  1.2553  0.8418  0.9899
 3728SOL    HW314685   4.545   0.370   6.410 -0.1233 -0.3207  0.2631
 3728SOL    MW414686   4.503   0.440   6.379 -0.1058 -0.0756 -0.2920
 3729SOL     OW14687   4.711   6.042   0.631  0.2041 -0.5305  0.2701
 3729SOL    HW214688   4.697   6.137   0.622  0.7679 -0.2726  1.8923
 3729SOL    HW314689   4.716   6.011   0.540 -1.0008  0.8231 -0.3036
 3729SOL    MW414690   4.710   6.051   0.618 -0.1711  0.5992 -0.6450
 3730SOL     OW14691   4.329   2.058   0.890  0.3179  0.3742 -0.2194
 3730SOL    HW214692   4.298   2.015   0.969  1.2270  2.0071  1.0894
 3730SOL    HW314693   4.250   2.070   0.836 -0.8220  1.6021  1.6277
 3730SOL    MW414694   4.314   2.054   0.893  0.1228  0.4276  0.5249
 3731SOL     OW14695   4.391   3.766   5.969 -0.6266  0.0908  0.1100
 3731SOL    HW214696   4.414   3.673   5.973 -0.7805  0.0688  0.4957
 3731SOL    HW314697   4.361   3.787   6.057 -1.0026  0.4009 -0.0922
 3731SOL    MW414698   4.390   3.756   5.981  0.0687  0.2538  0.6023
 3732SOL     OW14699   4.691   4.717   0.150 -0.4404  0.2786  0.5162
 3732SOL    HW214700   4.689   4.793   0.209 -0.4526  0.4389  0.3124
 3732SOL    HW314701   4.666   4.753   0.064 -0.6438  0.0063  0.4592
 3732SOL    MW414702   4.687   4.732   0.146 -0.5216 -0.0642  0.3553
 3733SOL     OW14703   0.345   6.210   3.529  0.8776  0.1571  0.1803
 3733SOL    HW214704   0.272   6.250   3.483 -0.0147 -0.5185  0.9693
 3733SOL    HW314705   0.362   6.268   3.603  0.5476 -0.1488  0.4987
 3733SOL    MW414706   0.338   6.223   3.533 -0.0319 -0.1931 -0.1915
 3734SOL     OW14707   2.113   4.771   3.042 -0.0166 -0.5371  0.2633
 3734SOL    HW214708   2.123   4.814   2.957  1.0322  0.6021  0.9143
 3734SOL    HW314709   2.136   4.680   3.027  0.3180 -0.3076 -0.6537
 3734SOL    MW414710   2.118   4.765   3.029  0.0775  0.0199  0.5756
 3735SOL     OW14711   1.750   5.112   5.107  0.6221 -0.0325  0.1162
 3735SOL    HW214712   1.659   5.091   5.129  0.3487 -1.7046 -2.2950
 3735SOL    HW314713   1.802   5.052   5.160  0.2234 -0.5312 -0.0554
 3735SOL    MW414714   1.745   5.102   5.117 -1.1175 -0.1219 -0.2087
 3736SOL     OW14715   1.574   3.957   5.304  0.3094 -0.0737 -0.2942
 3736SOL    HW214716   1.645   3.905   5.342 -1.1125 -0.1960  2.3819
 3736SOL    HW314717   1.584   4.044   5.343 -1.0150 -0.1128  0.1695
 3736SOL    MW414718   1.585   3.962   5.314  0.0046  0.0329 -0.0818
 3737SOL     OW14719   4.975   0.791   5.019  0.1326  0.1555 -0.8015
 3737SOL    HW214720   4.961   0.885   5.028 -0.3836  0.0934 -0.9093
 3737SOL    HW314721   4.997   0.779   4.926  2.8877  0.4837 -0.2686
 3737SOL    MW414722   4.976   0.802   5.008  0.4606  0.1262  0.0797
 3738SOL     OW14723   3.823   0.716   3.144  0.3166 -0.0362 -0.7814
 3738SOL    HW214724   3.794   0.647   3.085 -2.5730 -0.6273  1.1473
 3738SOL    HW314725   3.880   0.772   3.090 -1.7613 -0.7744 -3.9732
 3738SOL    MW414726   3.827   0.715   3.129 -0.2152 -0.8398  0.6770
 3739SOL     OW14727   5.652   5.637   6.222  0.2733  0.3174 -0.3848
 3739SOL    HW214728   5.709   5.687   6.163  1.3533  0.8399  1.0638
 3739SOL    HW314729   5.683   5.658   6.310 -1.1579 -0.6258  0.3894
 3739SOL    MW414730   5.663   5.646   6.226 -0.5469  0.0414  0.1082
 3740SOL     OW14731   2.474   4.053   6.153 -0.4093 -0.0556 -0.3003
 3740SOL    HW214732   2.544   4.028   6.093  1.2045  1.3875  0.8861
 3740SOL    HW314733   2.501   4.138   6.188 -2.4279  0.2259  0.7269
 3740SOL    MW414734   2.487   4.060   6.150  0.0955 -0.4089 -0.0943
 3741SOL     OW14735   6.319   3.158   0.053  0.0674 -0.1628  0.6364
 3741SOL    HW214736   6.326   3.245   0.091 -0.0262 -0.0616  0.4272
 3741SOL    HW314737   6.365   3.165  -0.031  0.3433 -0.4031  0.7659
 3741SOL    MW414738   6.326   3.170   0.047  0.1943  0.0054  0.6008
 3742SOL     OW14739   5.207   4.498   1.773  0.2629 -0.0663 -0.1308
 3742SOL    HW214740   5.119   4.481   1.806  0.0432  1.1969 -0.0071
 3742SOL    HW314741   5.202   4.480   1.679 -0.8870  2.5478 -0.6426
 3742SOL    MW414742   5.195   4.493   1.765 -0.3548 -0.0839 -0.1928
 3743SOL     OW14743   1.884   6.049   2.985 -0.7072  0.0181 -0.1686
 3743SOL    HW214744   1.829   5.999   2.925 -2.6603  1.5152  0.2644
 3743SOL    HW314745   1.846   6.031   3.071  0.2261  0.1757  0.2760
 3743SOL    MW414746   1.871   6.040   2.988  0.2198  0.0331 -0.0640
 3744SOL     OW14747   4.078   0.488   2.589 -0.4926 -0.0053 -0.3498
 3744SOL    HW214748   4.000   0.494   2.644  0.2206 -0.5565  0.7630
 3744SOL    HW314749   4.149   0.517   2.646  0.4722 -1.9118 -0.4874
 3744SOL    MW414750   4.077   0.493   2.604 -0.5477  0.0699 -0.2375
 3745SOL     OW14751   3.746   5.732   2.957  0.4686 -0.4071 -0.5075
 3745SOL    HW214752   3.709   5.796   2.897 -2.2659  0.5368  2.0063
 3745SOL    HW314753   3.710   5.648   2.928  1.3982 -0.4059 -1.7697
 3745SOL    MW414754   3.737   5.729   2.945 -0.1298 -0.2679 -0.5496
 3746SOL     OW14755   0.302   0.957   4.889  0.0040  0.4321  0.2053
 3746SOL    HW214756   0.290   0.974   4.982  1.6249 -0.1062  0.5418
 3746SOL    HW314757   0.331   0.866   4.884 -0.4179  0.3374 -0.8696
 3746SOL    MW414758   0.304   0.947   4.900  0.4406  0.2191  0.1691
 3747SOL     OW14759   3.758   5.035   5.601 -0.4605  0.1020 -0.0912
 3747SOL    HW214760   3.704   5.114   5.594  0.1245  0.4679 -0.5295
 3747SOL    HW314761   3.726   4.979   5.530  0.9598  1.0844 -1.5883
 3747SOL    MW414762   3.747   5.038   5.591  0.1528  0.6698 -0.1238
 3748SOL     OW14763   0.902   2.535   2.768 -0.5551  0.1869 -0.1554
 3748SOL    HW214764   0.899   2.628   2.794 -0.2719 -0.5138  2.7397
 3748SOL    HW314765   0.838   2.493   2.825  1.5210 -1.8194  0.8525
 3748SOL    MW414766   0.893   2.542   2.779  0.1579 -0.6168  0.7154
 3749SOL     OW14767   3.138   5.603   2.460 -0.3363  0.3479  0.0059
 3749SOL    HW214768   3.215   5.584   2.513 -1.0917  0.5642  1.2434
 3749SOL    HW314769   3.093   5.518   2.452 -0.6171  0.4523  0.4001
 3749SOL    MW414770   3.142   5.589   2.466  0.5814  0.1274  0.1845
 3750SOL     OW14771   1.736   1.924   6.139  0.0099  0.2976 -0.3747
 3750SOL    HW214772   1.716   1.857   6.074  1.7612 -0.9376  0.2935
 3750SOL    HW314773   1.666   1.989   6.128 -0.7857 -0.7778 -2.1964
 3750SOL    MW414774   1.724   1.924   6.129 -0.9610 -0.5804 -0.3873
 3751SOL     OW14775   4.879   1.152   6.387 -0.1599  0.4997  0.6932
 3751SOL    HW214776   4.898   1.216   6.456  0.2557  0.8797  0.2352
 3751SOL    HW314777   4.936   1.078   6.408  1.1976  1.2678 -0.1506
 3751SOL    MW414778   4.889   1.151   6.399 -0.5687  0.3190  0.7084
 3752SOL     OW14779   5.266   6.254   1.773  0.1780  0.2082  0.4899
 3752SOL    HW214780   5.357   6.257   1.742 -0.1528  1.5250 -0.4254
 3752SOL    HW314781   5.253   6.338   1.816 -0.5033 -0.1340  0.9657
 3752SOL    MW414782   5.276   6.266   1.775  0.0606 -0.9482 -0.0414
 3753SOL     OW14783   3.082   5.376   5.288 -0.0143 -0.3941 -0.7114
 3753SOL    HW214784   3.055   5.466   5.272 -1.9428 -0.8205 -0.0908
 3753SOL    HW314785   3.088   5.336   5.202  0.7217  0.2734 -0.9810
 3753SOL    MW414786   3.080   5.383   5.275  0.8617  0.3680  0.4656
 3754SOL     OW14787   3.244   3.746   0.979 -0.4079  0.2976  0.6928
 3754SOL    HW214788   3.270   3.736   1.071  0.9045  0.7658  0.3932
 3754SOL    HW314789   3.317   3.709   0.929 -1.1528 -0.0336 -0.1682
 3754SOL    MW414790   3.257   3.740   0.985 -0.3577 -0.4483 -0.9900
 3755SOL     OW14791   5.411   2.067   0.927  0.5101 -0.2423  0.2711
 3755SOL    HW214792   5.328   2.030   0.957  0.2012 -0.4974 -0.8261
 3755SOL    HW314793   5.429   2.138   0.988 -1.2606  0.7392 -0.2775
 3755SOL    MW414794   5.402   2.072   0.939  0.0844  0.6645 -0.2980
 3756SOL     OW14795   2.097   0.078   6.044 -0.3986 -0.0408 -0.4771
 3756SOL    HW214796   2.111  -0.011   6.077  2.1978  0.1769 -0.7814
 3756SOL    HW314797   2.075   0.066   5.951  2.0356 -0.3675 -1.0750
 3756SOL    MW414798   2.096   0.065   6.036  0.3582 -0.6493 -0.3870
 3757SOL     OW14799   3.196   0.560   3.684  0.2838 -0.5319  0.1113
 3757SOL    HW214800   3.123   0.609   3.724 -0.4692 -1.0803 -0.5513
 3757SOL    HW314801   3.153   0.486   3.641  1.2851 -1.0618  0.0150
 3757SOL    MW414802   3.181   0.557   3.684 -0.0380  0.1886 -0.2836
 3758SOL     OW14803   1.971   4.410   0.046  1.0503  1.4755 -0.0492
 3758SOL    HW214804   2.011   4.496   0.063  0.2290  1.5309  1.8041
 3758SOL    HW314805   1.942   4.379   0.132  1.2069 -0.6216 -0.7011
 3758SOL    MW414806   1.972   4.418   0.060 -0.1905  0.2895  0.1617
 3759SOL     OW14807   2.341   1.453   3.566 -0.5838  0.0610  0.0352
 3759SOL    HW214808   2.355   1.535   3.613  0.9449 -0.1024 -0.0527
 3759SOL    HW314809   2.284   1.475   3.493 -0.2562  1.0351  0.0592
 3759SOL    MW414810   2.336   1.466   3.563 -0.5429  0.3133 -0.7087
 3760SOL     OW14811   2.067   5.856   1.147  0.2684  0.0662  0.5509
 3760SOL    HW214812   2.030   5.850   1.235 -0.3293 -1.5299  0.2351
 3760SOL    HW314813   1.993   5.837   1.089  0.7477  0.6807 -0.2852
 3760SOL    MW414814   2.052   5.853   1.151  0.8601 -0.3208 -0.8179
 3761SOL     OW14815   5.715   3.455   1.695 -0.8744  0.1862 -0.5802
 3761SOL    HW214816   5.674   3.530   1.738  0.9743  0.2884  1.1705
 3761SOL    HW314817   5.798   3.489   1.661  1.3513 -1.4543  2.6518
 3761SOL    MW414818   5.721   3.469   1.696  0.4089 -0.2637 -0.6117
 3762SOL     OW14819   2.308   1.496   5.731  0.5883 -0.2286  0.2311
 3762SOL    HW214820   2.360   1.565   5.690 -0.1696  0.1349 -0.1393
 3762SOL    HW314821   2.328   1.504   5.824  1.7401 -0.5696  0.0350
 3762SOL    MW414822   2.318   1.507   5.738  0.3461 -0.0516 -0.7341
 3763SOL     OW14823   6.004   4.144   3.849  0.4790 -0.1832 -0.2057
 3763SOL    HW214824   5.923   4.134   3.900  0.6487  0.6095  0.2200
 3763SOL    HW314825   6.020   4.056   3.814 -0.6488 -0.3226 -0.4233
 3763SOL    MW414826   5.995   4.131   3.851 -0.2460 -0.5847 -0.1369
 3764SOL     OW14827   1.078   1.889   5.305 -0.7739  0.6346 -0.3536
 3764SOL    HW214828   1.044   1.895   5.394  0.6927 -0.9267  0.3585
 3764SOL    HW314829   1.137   1.964   5.297 -1.5225  1.2393 -0.3158
 3764SOL    MW414830   1.081   1.900   5.315 -0.3448 -0.1644 -0.0829
 3765SOL     OW14831   1.386   2.279   4.006 -0.3411  0.0701 -0.0446
 3765SOL    HW214832   1.299   2.319   4.015 -0.7591 -0.6454 -0.8438
 3765SOL    HW314833   1.431   2.335   3.943 -0.8207 -0.5164 -0.9283
 3765SOL    MW414834   1.380   2.292   3.999  0.4235 -0.3302  0.3259
 3766SOL     OW14835   1.699   2.380   3.732 -0.0715 -0.5246 -0.3971
 3766SOL    HW214836   1.701   2.364   3.826  1.2903 -0.1113 -0.3394
 3766SOL    HW314837   1.720   2.473   3.723  1.4879 -0.9232 -1.1642
 3766SOL    MW414838   1.702   2.390   3.743 -0.3487 -0.4131 -0.1030
 3767SOL     OW14839   1.172   2.951   1.544  0.1849  0.4535  0.4142
 3767SOL    HW214840   1.262   2.969   1.517 -0.2582 -0.0672 -1.5828
 3767SOL    HW314841   1.158   3.007   1.621  0.9908  3.5043 -1.4907
 3767SOL    MW414842   1.182   2.961   1.551  0.1630  0.5721 -0.2077
 3768SOL     OW14843   1.726   3.835   4.026 -0.0496  0.1972 -0.9013
 3768SOL    HW214844   1.648   3.861   4.075 -0.5466 -2.1549 -0.3507
 3768SOL    HW314845   1.796   3.835   4.090 -0.5188 -1.9817 -0.3245
 3768SOL    MW414846   1.725   3.839   4.041  0.1754 -0.8046  0.5681
 3769SOL     OW14847   4.253   4.677   3.249 -0.5590  0.4605  0.1342
 3769SOL    HW214848   4.200   4.603   3.278  2.0470 -0.4080  3.2494
 3769SOL    HW314849   4.231   4.748   3.309  1.0076  0.3720  0.8709
 3769SOL    MW414850   4.243   4.677   3.260  0.4162 -0.0844 -0.3333
 3770SOL     OW14851   6.132   4.117   5.342 -0.3164  0.0193 -0.2383
 3770SOL    HW214852   6.103   4.144   5.255 -0.2815 -0.6771 -0.4710
 3770SOL    HW314853   6.205   4.058   5.326  0.2666  0.5740  0.2967
 3770SOL    MW414854   6.138   4.113   5.329  0.1264 -0.2963  0.0951
 3771SOL     OW14855   2.354   0.667   5.862  0.3090 -0.1006 -0.4193
 3771SOL    HW214856   2.323   0.740   5.809  2.4287  1.7473  0.7148
 3771SOL    HW314857   2.276   0.614   5.879 -0.9618  0.8906 -2.7751
 3771SOL    MW414858   2.340   0.670   5.858  0.4681 -0.6811  0.0956
 3772SOL     OW14859   4.540   5.358   2.837 -0.1798 -0.1565 -0.5364
 3772SOL    HW214860   4.539   5.432   2.898 -1.2892  0.0206 -0.7441
 3772SOL    HW314861   4.460   5.369   2.786  0.0020 -1.1203 -1.0379
 3772SOL    MW414862   4.530   5.370   2.839 -0.1047  0.2098  0.7898
 3773SOL     OW14863   2.043   2.811   3.301 -0.0407 -0.2269 -0.7977
 3773SOL    HW214864   1.980   2.865   3.348  1.0901  1.7457 -1.4711
 3773SOL    HW314865   2.046   2.848   3.213  2.0046 -0.2778 -0.7941
 3773SOL    MW414866   2.035   2.823   3.296  0.2393 -0.0107  0.3831
 3774SOL     OW14867   2.965   1.898   5.715  0.6446  0.0950 -0.1423
 3774SOL    HW214868   2.959   1.932   5.804 -1.2889  0.2964 -0.3204
 3774SOL    HW314869   3.024   1.823   5.722  2.5452  1.5827  0.8094
 3774SOL    MW414870   2.972   1.893   5.728 -0.0766 -0.0354  0.0089
 3775SOL     OW14871   5.221   5.197   4.189 -0.1187 -0.1595 -0.0940
 3775SOL    HW214872   5.251   5.135   4.256 -2.3609 -3.2908 -1.7358
 3775SOL    HW314873   5.253   5.161   4.107 -0.7615  1.4093 -1.0855
 3775SOL    MW414874   5.229   5.184   4.187  0.7275 -0.2345  0.2480
 3776SOL     OW14875   1.661   0.475   2.459  0.7510  0.0316 -0.1031
 3776SOL    HW214876   1.683   0.491   2.367 -0.9573  3.5399 -0.0788
 3776SOL    HW314877   1.621   0.388   2.460  0.8537 -0.1157 -2.6603
 3776SOL    MW414878   1.658   0.466   2.447 -0.2059 -0.1304 -0.6597
 3777SOL     OW14879   5.226   0.415   3.374 -0.4259 -0.0214  0.1842
 3777SOL    HW214880   5.317   0.445   3.382 -0.1713 -1.1133  1.7414
 3777SOL    HW314881   5.228   0.350   3.304  0.0781 -0.3522  0.5030
 3777SOL    MW414882   5.239   0.411   3.365 -0.4101  0.1217 -0.3363
 3778SOL     OW14883   3.341   1.267   6.191  0.0448  0.2160 -0.0824
 3778SOL    HW214884   3.403   1.340   6.194  0.7053 -0.3219 -0.2991
 3778SOL    HW314885   3.317   1.260   6.099  1.2886 -0.8847 -0.3602
 3778SOL    MW414886   3.346   1.275   6.179  0.2058  0.5300  0.0494
 3779SOL     OW14887   3.172   5.650   3.897  0.1221 -0.4024  0.1730
 3779SOL    HW214888   3.159   5.700   3.978  0.4281 -0.4237  0.2339
 3779SOL    HW314889   3.083   5.630   3.868 -0.0295  1.0414 -0.3943
 3779SOL    MW414890   3.158   5.654   3.904 -0.2404  0.0778 -0.3001
 3780SOL     OW14891   4.263   2.569   2.565 -0.1974 -0.0799  0.4115
 3780SOL    HW214892   4.351   2.549   2.596  0.3847  0.7943 -0.6231
 3780SOL    HW314893   4.269   2.565   2.470 -1.7809 -2.0420  0.2992
 3780SOL    MW414894   4.275   2.566   2.557 -0.0809  0.2267  0.2932
 3781SOL     OW14895   4.181   2.827   4.607 -0.1971 -0.2617  0.7741
 3781SOL    HW214896   4.191   2.911   4.650 -0.2768  0.4665 -0.5658
 3781SOL    HW314897   4.270   2.793   4.600  0.0712  0.6123 -0.3643
 3781SOL    MW414898   4.194   2.833   4.611  0.5054 -0.0282 -0.1511
 3782SOL     OW14899   3.286   2.144   0.233 -0.0792 -0.0505  0.9071
 3782SOL    HW214900   3.233   2.072   0.266 -0.1807  0.1817  1.2601
 3782SOL    HW314901   3.359   2.151   0.295  0.6097 -0.6468  0.1941
 3782SOL    MW414902   3.289   2.136   0.245  0.3654  0.1849  0.1683
 3783SOL     OW14903   3.981   0.345   4.412 -0.1184  0.1864  0.3002
 3783SOL    HW214904   3.979   0.249   4.420  2.5621  0.1200  1.1427
 3783SOL    HW314905   4.053   0.362   4.352 -1.2104  1.6831 -0.6274
 3783SOL    MW414906   3.990   0.335   4.405  0.2207  0.3183  0.8371
 3784SOL     OW14907   5.046   4.375   2.094 -0.0788  0.1563  0.1747
 3784SOL    HW214908   5.021   4.325   2.016 -2.4497 -0.2197  1.0976
 3784SOL    HW314909   5.040   4.467   2.067 -0.2053  0.0188 -0.2710
 3784SOL    MW414910   5.042   4.381   2.080  0.0683  0.9474 -0.4177
 3785SOL     OW14911   0.060   5.581   0.833 -0.2233 -0.3090  0.3618
 3785SOL    HW214912  -0.034   5.579   0.851 -0.5499 -0.1476 -1.1862
 3785SOL    HW314913   0.067   5.627   0.749  1.0924 -1.6670 -0.3212
 3785SOL    MW414914   0.048   5.587   0.824 -0.0340  0.2095 -0.1062
 3786SOL     OW14915   6.166   0.178   4.315 -0.3836  0.1650  0.2641
 3786SOL    HW214916   6.261   0.189   4.320 -0.1950 -0.5427 -1.1418
 3786SOL    HW314917   6.143   0.208   4.227 -1.4724  0.3724  0.6053
 3786SOL    MW414918   6.176   0.183   4.304  0.1785 -0.7537 -0.0425
 3787SOL     OW14919   1.332   0.664   4.183  0.0435 -0.6990 -0.1951
 3787SOL    HW214920   1.297   0.669   4.094 -0.8054  0.9450  0.1999
 3787SOL    HW314921   1.261   0.626   4.234  0.8866 -2.6243 -0.3362
 3787SOL    MW414922   1.318   0.659   4.178 -0.3814  0.2174 -0.0439
 3788SOL     OW14923   2.741   5.681   5.370  0.1886  0.7636 -0.4998
 3788SOL    HW214924   2.737   5.713   5.461  1.1509 -2.6039  0.8776
 3788SOL    HW314925   2.834   5.666   5.354 -0.1238 -0.3801 -1.3646
 3788SOL    MW414926   2.753   5.683   5.380  0.2036  0.0314 -0.4163
 3789SOL     OW14927   1.726   0.527   5.640  0.2911 -0.0104  0.1411
 3789SOL    HW214928   1.662   0.599   5.638  0.2725 -0.0346 -0.1135
 3789SOL    HW314929   1.785   0.550   5.712  0.0868  0.0903  0.2793
 3789SOL    MW414930   1.725   0.540   5.649 -0.6635 -0.3499  0.1636
 3790SOL     OW14931   4.971   5.674   5.608  0.4213 -0.3520 -0.0265
 3790SOL    HW214932   5.000   5.755   5.649 -2.9393  1.6070 -1.0489
 3790SOL    HW314933   4.970   5.609   5.678  1.2177  1.0597  1.3413
 3790SOL    MW414934   4.975   5.676   5.622  0.5299  0.2968 -0.2698
 3791SOL     OW14935   4.780   5.315   1.278 -0.0948  0.2040 -0.4228
 3791SOL    HW214936   4.829   5.396   1.266  1.2289 -0.6685 -1.1526
 3791SOL    HW314937   4.719   5.334   1.349  0.2396  1.8051 -0.5313
 3791SOL    MW414938   4.778   5.328   1.286  0.1247 -0.3593  0.0879
 3792SOL     OW14939   0.843   0.179   0.744 -0.2447  0.6067 -0.2247
 3792SOL    HW214940   0.789   0.106   0.713 -2.7735  2.0119  0.5113
 3792SOL    HW314941   0.932   0.144   0.747 -1.2646 -2.2754 -0.3198
 3792SOL    MW414942   0.847   0.165   0.740  0.3155 -0.4472  0.3060
 3793SOL     OW14943   2.101   1.797   3.954  0.0587 -0.2534 -0.3598
 3793SOL    HW214944   2.133   1.789   3.864 -0.1756  0.7276 -0.5468
 3793SOL    HW314945   2.043   1.722   3.966  0.3744 -0.5936 -0.8984
 3793SOL    MW414946   2.098   1.786   3.944  0.1851  0.1325 -0.0711
 3794SOL     OW14947   1.331   1.345   0.423 -0.2991  0.1329  0.1752
 3794SOL    HW214948   1.288   1.270   0.464 -1.7816  0.9290  0.1666
 3794SOL    HW314949   1.268   1.416   0.432  1.0028  1.3475  0.0452
 3794SOL    MW414950   1.317   1.344   0.430  0.7130 -0.0859 -0.4461
 3795SOL     OW14951   3.245   3.140   1.033  0.4523  0.3844  0.2096
 3795SOL    HW214952   3.207   3.078   0.971  1.8880  0.8104 -1.1472
 3795SOL    HW314953   3.190   3.218   1.025  0.0282  0.0929  0.2332
 3795SOL    MW414954   3.233   3.142   1.024  0.0163  0.3424  0.3340
 3796SOL     OW14955   0.340   5.513   0.898  0.3339  0.5591  0.4054
 3796SOL    HW214956   0.322   5.487   0.988  1.4909 -0.9053  0.2593
 3796SOL    HW314957   0.255   5.539   0.863 -0.4027 -0.3114  1.4660
 3796SOL    MW414958   0.327   5.513   0.905 -0.6299  0.2077  0.3666
 3797SOL     OW14959   2.773   3.468   2.712  0.2412 -0.4234  0.0405
 3797SOL    HW214960   2.807   3.392   2.665  0.7977 -0.8587  1.1326
 3797SOL    HW314961   2.720   3.514   2.647  3.3962  0.6902 -1.9997
 3797SOL    MW414962   2.770   3.464   2.697 -0.2475  0.1400 -0.5437
 3798SOL     OW14963   0.111   0.655   5.332 -0.8523  0.1485 -0.1080
 3798SOL    HW214964   0.153   0.569   5.324  0.8645  0.9926 -0.8355
 3798SOL    HW314965   0.021   0.640   5.303 -0.6275 -1.4258 -0.1111
 3798SOL    MW414966   0.105   0.642   5.327 -0.3254 -0.4291  0.4043
 3799SOL     OW14967   3.179   6.406   1.494 -0.6020  0.0575 -0.4805
 3799SOL    HW214968   3.235   6.364   1.430 -1.5013  1.1056 -2.0107
 3799SOL    HW314969   3.093   6.410   1.453 -0.9931  1.6013  0.3979
 3799SOL    MW414970   3.175   6.401   1.480  0.6133  0.1927  0.5010
 3800SOL     OW14971   4.747   5.853   6.328  0.5550  0.1067 -0.6354
 3800SOL    HW214972   4.668   5.901   6.355  2.1420  3.1621 -0.9469
 3800SOL    HW314973   4.777   5.809   6.407  0.1617  1.4486  0.2976
 3800SOL    MW414974   4.740   5.854   6.342 -0.0833  0.5566  0.7266
 3801SOL     OW14975   6.296   4.451   0.045 -0.7985  1.1262  0.5150
 3801SOL    HW214976   6.259   4.436  -0.042 -2.5341  2.1821  1.0304
 3801SOL    HW314977   6.339   4.536   0.039  1.3986  0.0853  0.0329
 3801SOL    MW414978   6.297   4.460   0.033  0.1329 -0.1225  0.2356
 3802SOL     OW14979   1.867   1.616   4.009  0.1800  0.6755  0.1603
 3802SOL    HW214980   1.899   1.602   3.920  2.4528  2.2403  0.6492
 3802SOL    HW314981   1.819   1.699   4.005 -0.0679  0.5411  0.3163
 3802SOL    MW414982   1.865   1.625   3.997 -0.3418  0.2310  0.2432
 3803SOL     OW14983   4.992   0.526   3.271  0.2226  0.0691  0.0232
 3803SOL    HW214984   5.078   0.495   3.300 -0.0078 -0.3442  0.2865
 3803SOL    HW314985   4.994   0.518   3.176  0.3146 -0.3857  0.0592
 3803SOL    MW414986   5.004   0.521   3.262 -0.3381  0.6320 -0.5184
 3804SOL     OW14987   5.798   1.490   1.249  0.0484  0.2125  0.2359
 3804SOL    HW214988   5.853   1.568   1.254  0.1917  0.0804  0.8254
 3804SOL    HW314989   5.840   1.427   1.308 -0.2847 -0.1721  0.0697
 3804SOL    MW414990   5.811   1.492   1.258  0.4991 -0.0949 -0.0979
 3805SOL     OW14991   0.772   3.426   1.371 -0.0191  0.5898  0.1609
 3805SOL    HW214992   0.681   3.408   1.345  0.7900 -1.0407 -1.8255
 3805SOL    HW314993   0.773   3.411   1.465 -1.4725 -1.1253 -0.0357
 3805SOL    MW414994   0.760   3.422   1.380 -0.4756  0.0897 -0.6860
 3806SOL     OW14995   1.311   4.783   5.255  0.2032  0.5162 -0.5801
 3806SOL    HW214996   1.235   4.744   5.212 -1.8022  2.1450  1.2219
 3806SOL    HW314997   1.338   4.718   5.320  0.1964  0.0446 -1.0391
 3806SOL    MW414998   1.304   4.769   5.258 -0.5387 -0.2319  0.5421
 3807SOL     OW14999   4.204   4.408   4.157  0.2888  0.0292 -0.0700
 3807SOL    HW215000   4.268   4.416   4.228  0.5843 -0.9108 -0.2089
 3807SOL    HW315001   4.133   4.357   4.194 -2.0751  3.8153  1.1537
 3807SOL    MW415002   4.203   4.402   4.171  0.4490 -0.3450 -0.1399
 3808SOL     OW15003   1.745   0.666   2.889  0.5522 -0.2887 -0.2823
 3808SOL    HW215004   1.686   0.739   2.908 -0.2306 -0.6995 -1.0394
 3808SOL    HW315005   1.759   0.671   2.794 -1.1969 -2.3346 -0.7115
 3808SOL    MW415006   1.739   0.677   2.879  0.6731 -0.2171 -0.3128
 3809SOL     OW15007   1.700   5.855   5.097  0.2978 -0.1749  0.1461
 3809SOL    HW215008   1.779   5.803   5.082  0.6552  0.4094  0.0032
 3809SOL    HW315009   1.732   5.941   5.123 -0.1955  1.1766 -3.2694
 3809SOL    MW415010   1.715   5.859   5.099  0.1591  0.3859  0.3043
 3810SOL     OW15011   2.078   1.877   2.574  0.2215 -0.4208  0.0985
 3810SOL    HW215012   2.151   1.935   2.556 -0.2374 -0.1674 -1.0948
 3810SOL    HW315013   2.117   1.799   2.611  1.1495 -0.4293 -0.8550
 3810SOL    MW415014   2.092   1.874   2.576 -0.5753 -0.4153 -0.7501
 3811SOL     OW15015   5.345   2.829   5.707  0.5468  0.6605 -0.0624
 3811SOL    HW215016   5.344   2.822   5.611 -0.4717  0.2309 -0.0337
 3811SOL    HW315017   5.338   2.923   5.724 -0.7087  0.6620 -0.4269
 3811SOL    MW415018   5.344   2.841   5.697 -1.1580  0.7578 -0.1307
 3812SOL     OW15019   3.778   6.142   4.208 -0.0735  0.4071  0.5736
 3812SOL    HW215020   3.818   6.064   4.170 -0.0150  0.4046  0.6394
 3812SOL    HW315021   3.779   6.125   4.303  0.3780  0.6988  0.6237
 3812SOL    MW415022   3.783   6.129   4.216  0.5415 -0.0535 -0.4446
 3813SOL     OW15023   0.186   5.198   3.096 -0.2197  0.2829 -0.1588
 3813SOL    HW215024   0.098   5.184   3.060 -0.5857  2.0968 -0.0766
 3813SOL    HW315025   0.179   5.173   3.188 -0.5110 -0.0622 -0.2741
 3813SOL    MW415026   0.173   5.193   3.103  0.9616  0.3862  0.1995
 3814SOL     OW15027   0.846   2.585   2.115  0.9077 -0.2257 -0.0768
 3814SOL    HW215028   0.854   2.548   2.027  0.6160  1.5768 -0.8902
 3814SOL    HW315029   0.858   2.679   2.103 -1.4018  0.3400  1.4575
 3814SOL    MW415030   0.849   2.592   2.102 -0.2604  0.2013  0.2035
 3815SOL     OW15031   2.482   4.666   1.141 -0.1300 -0.1251  0.1878
 3815SOL    HW215032   2.507   4.717   1.218  2.1501  1.1177 -1.2530
 3815SOL    HW315033   2.410   4.715   1.101  1.1852  1.3641 -0.4667
 3815SOL    MW415034   2.476   4.679   1.146  1.0458  0.8655 -0.1616
 3816SOL     OW15035   6.195   0.596   3.345 -0.6587 -0.4572  0.2613
 3816SOL    HW215036   6.175   0.672   3.400 -0.0524  0.6509 -0.9961
 3816SOL    HW315037   6.216   0.527   3.407 -1.8031  0.2197  1.4604
 3816SOL    MW415038   6.195   0.597   3.361 -0.1010 -0.2890 -0.3128
 3817SOL     OW15039   3.916   5.301   3.426  0.2569  0.0932  0.1580
 3817SOL    HW215040   3.959   5.362   3.486 -0.4363 -0.3015  1.0730
 3817SOL    HW315041   3.862   5.245   3.482  1.1413 -1.6131 -0.6195
 3817SOL    MW415042   3.915   5.302   3.441  0.0123  0.0317 -0.0847
 3818SOL     OW15043   2.821   0.649   2.277 -0.3309  0.7746  0.0945
 3818SOL    HW215044   2.790   0.692   2.197 -0.4984  0.5080  0.0148
 3818SOL    HW315045   2.915   0.662   2.276 -0.1797 -0.2029 -0.7361
 3818SOL    MW415046   2.829   0.656   2.266 -0.5793 -0.2003  0.8666
 3819SOL     OW15047   1.221   1.399   4.648 -0.1756  0.4794 -0.3423
 3819SOL    HW215048   1.156   1.470   4.646 -1.3603 -0.3086  3.1714
 3819SOL    HW315049   1.168   1.319   4.653  1.1251 -0.4069 -0.3611
 3819SOL    MW415050   1.205   1.398   4.648  0.0172 -0.1119 -0.0161
 3820SOL     OW15051   3.190   0.260   0.108  0.0256 -0.2926 -0.6289
 3820SOL    HW215052   3.119   0.288   0.050 -0.1699 -1.2782 -0.8996
 3820SOL    HW315053   3.248   0.209   0.051  0.2666 -0.5746 -0.1362
 3820SOL    MW415054   3.189   0.257   0.093  0.1542  0.1396  0.1624
 3821SOL     OW15055   1.799   6.305   2.915  0.2547 -0.4027 -0.4383
 3821SOL    HW215056   1.829   6.226   2.961  1.6242  0.2751 -0.0944
 3821SOL    HW315057   1.709   6.317   2.944 -0.4120 -2.5224 -1.4717
 3821SOL    MW415058   1.791   6.296   2.925  0.4191  0.7390  0.5419
 3822SOL     OW15059   3.879   4.506   1.155  0.2206 -0.1190  0.2395
 3822SOL    HW215060   3.911   4.510   1.065 -0.3424 -0.0727  0.0367
 3822SOL    HW315061   3.797   4.555   1.153  0.6727  0.6924  0.9936
 3822SOL    MW415062   3.873   4.513   1.143 -0.4872  0.3822 -0.4613
 3823SOL     OW15063   2.890   5.639   3.861  0.3635 -0.0455 -0.4905
 3823SOL    HW215064   2.803   5.677   3.856  0.7264  0.9163  0.1013
 3823SOL    HW315065   2.876   5.548   3.884 -0.4994 -0.0021 -0.8324
 3823SOL    MW415066   2.877   5.632   3.863  0.3419 -0.3711  0.1683
 3824SOL     OW15067   4.431   6.113   4.549 -0.3257 -0.1365 -0.7572
 3824SOL    HW215068   4.424   6.188   4.608 -3.4036 -0.0374 -1.0920
 3824SOL    HW315069   4.447   6.153   4.463  0.3038 -0.0338 -0.5979
 3824SOL    MW415070   4.432   6.128   4.545  0.2494 -0.2536  0.1277
 3825SOL     OW15071   4.329   0.878   1.980  0.0439 -0.2007  0.6034
 3825SOL    HW215072   4.378   0.840   1.907  0.1130  0.4428  0.3031
 3825SOL    HW315073   4.372   0.844   2.058 -0.6358 -1.6815  0.3723
 3825SOL    MW415074   4.341   0.869   1.980 -0.1614 -0.2196  0.1998
 3826SOL     OW15075   0.772   3.317   0.947 -0.5429  0.0580 -0.1387
 3826SOL    HW215076   0.692   3.297   0.996 -0.2355 -0.8739  0.0195
 3826SOL    HW315077   0.771   3.256   0.874 -0.7689  1.1398 -1.0644
 3826SOL    MW415078   0.761   3.306   0.944 -0.4704 -0.4287  0.4332
 3827SOL     OW15079   4.842   3.214   5.266 -0.1636 -0.4032  0.0759
 3827SOL    HW215080   4.760   3.259   5.249 -0.1141  0.0116  0.8803
 3827SOL    HW315081   4.884   3.265   5.335  0.5792 -0.8460 -0.0320
 3827SOL    MW415082   4.837   3.226   5.273  0.6416  0.1730  0.7378
 3828SOL     OW15083   0.054   4.303   1.487  0.3794 -0.3100  0.1768
 3828SOL    HW215084   0.038   4.233   1.423  0.7104 -0.7816  0.5953
 3828SOL    HW315085   0.149   4.302   1.499  0.6107  1.5200 -1.2593
 3828SOL    MW415086   0.065   4.293   1.480 -0.2495  0.3864 -0.1275
 3829SOL     OW15087   0.378   0.772   4.341  0.0091  0.2518 -0.1867
 3829SOL    HW215088   0.454   0.821   4.374 -0.8124  0.8159  0.9176
 3829SOL    HW315089   0.335   0.832   4.281  0.5767 -0.1768 -1.0480
 3829SOL    MW415090   0.383   0.786   4.337  0.3565 -0.0407  0.2748
 3830SOL     OW15091   3.129   4.062   3.882  0.0101  0.5206 -0.1536
 3830SOL    HW215092   3.204   4.011   3.852  0.5235  1.4162 -0.4438
 3830SOL    HW315093   3.153   4.091   3.970 -0.0157  0.7496 -0.2197
 3830SOL    MW415094   3.142   4.059   3.890  1.0644  0.5590  0.1027
 3831SOL     OW15095   0.419   5.063   1.091 -0.6226 -0.4537  0.5711
 3831SOL    HW215096   0.359   5.007   1.139 -0.4380 -0.2236  1.0784
 3831SOL    HW315097   0.383   5.067   1.002 -0.7890 -1.1381  0.6032
 3831SOL    MW415098   0.407   5.056   1.085  0.9221 -0.7816  0.1347
 3832SOL     OW15099   2.524   3.910   6.403 -0.2882 -0.2773  0.4399
 3832SOL    HW215100   2.473   3.957   6.337 -0.6419 -2.1426 -0.6744
 3832SOL    HW315101   2.615   3.929   6.381 -0.3945 -1.0084 -0.7185
 3832SOL    MW415102   2.529   3.919   6.391 -0.5745  0.1218  0.1066
 3833SOL     OW15103   0.868   3.660   4.830 -0.7872 -0.0588 -0.3195
 3833SOL    HW215104   0.828   3.718   4.895 -3.4117  0.1649 -1.9430
 3833SOL    HW315105   0.936   3.712   4.789 -0.3200  0.4025  1.0042
 3833SOL    MW415106   0.871   3.674   4.833  0.2329 -0.3984  0.7316
 3834SOL     OW15107   5.926   4.090   2.837 -0.1893  0.0903 -0.5720
 3834SOL    HW215108   5.931   3.994   2.835 -0.1611  0.0959 -0.8207
 3834SOL    HW315109   6.005   4.119   2.791  2.0782  0.3154  3.0686
 3834SOL    MW415110   5.937   4.081   2.830 -0.6208  0.0648 -0.2069
 3835SOL     OW15111   1.368   1.730   2.576  0.3701  0.5761 -0.2164
 3835SOL    HW215112   1.399   1.683   2.498 -0.5753 -0.2542 -0.1175
 3835SOL    HW315113   1.332   1.812   2.542 -0.4512  0.0205 -0.7174
 3835SOL    MW415114   1.367   1.734   2.561  0.1816  0.0515  0.7623
 3836SOL     OW15115   5.585   5.186   3.395  0.7481 -0.1981 -0.8420
 3836SOL    HW215116   5.517   5.207   3.460  0.4919  0.5080 -1.3276
 3836SOL    HW315117   5.559   5.234   3.316  0.6626 -1.6117 -1.7087
 3836SOL    MW415118   5.573   5.196   3.393 -0.0971 -0.8815  0.3323
 3837SOL     OW15119   3.367   4.742   6.089 -0.0727  0.7844 -0.7702
 3837SOL    HW215120   3.276   4.715   6.096 -0.0679  0.9852  0.1645
 3837SOL    HW315121   3.376   4.813   6.152  0.5768  1.1821 -1.3002
 3837SOL    MW415122   3.356   4.748   6.098 -0.1162  0.6059 -0.0477
 3838SOL     OW15123   2.844   2.554   0.029  0.3200 -0.4108  0.3177
 3838SOL    HW215124   2.800   2.621   0.082  0.4463 -0.0016 -0.0924
 3838SOL    HW315125   2.903   2.604  -0.028  1.7832 -0.9679  1.2711
 3838SOL    MW415126   2.846   2.570   0.029 -0.1072 -0.7283 -0.7419
 3839SOL     OW15127   3.864   3.239   0.866  0.8230  0.0164  0.3246
 3839SOL    HW215128   3.908   3.180   0.805  0.2294  0.9395 -1.0588
 3839SOL    HW315129   3.906   3.223   0.950  2.0556 -0.9107 -0.4338
 3839SOL    MW415130   3.875   3.229   0.869  0.1651 -0.0994  0.2230
 3840SOL     OW15131   4.805   4.304   0.106  0.2325 -0.1432 -0.0201
 3840SOL    HW215132   4.749   4.246   0.156 -1.9676  1.1348 -0.8787
 3840SOL    HW315133   4.752   4.333   0.032  1.7251  1.7837 -0.4438
 3840SOL    MW415134   4.791   4.300   0.103 -0.0376 -0.3472 -0.3859
 3841SOL     OW15135   4.211   1.624   6.344  0.7174 -0.0814  0.2671
 3841SOL    HW215136   4.213   1.682   6.267 -2.3677 -2.2934 -1.7269
 3841SOL    HW315137   4.185   1.681   6.416  1.1287  1.5954 -0.8482
 3841SOL    MW415138   4.208   1.639   6.343 -0.4475  0.6156 -0.8095
 3842SOL     OW15139   2.289   3.439   1.317  0.5269  0.2328 -0.1588
 3842SOL    HW215140   2.341   3.492   1.257  0.9151  0.9589  0.7888
 3842SOL    HW315141   2.315   3.349   1.298 -0.9038  0.2502 -2.5137
 3842SOL    MW415142   2.299   3.434   1.307 -0.0290  0.3408 -0.3583
 3843SOL     OW15143   2.174   3.710   5.793  0.3878 -0.0024  0.3317
 3843SOL    HW215144   2.241   3.695   5.725 -0.1475 -2.2451  0.2184
 3843SOL    HW315145   2.105   3.758   5.748  1.5271  1.6777  0.2558
 3843SOL    MW415146   2.174   3.714   5.778  0.1107 -0.0696  0.8008
 3844SOL     OW15147   2.745   2.878   5.547  0.4759  0.2317  0.0335
 3844SOL    HW215148   2.826   2.907   5.590 -0.6036  1.4317  1.3286
 3844SOL    HW315149   2.675   2.915   5.600 -0.9893 -2.1933 -0.0596
 3844SOL    MW415150   2.747   2.887   5.560  0.0268  0.0793  0.2336
 3845SOL     OW15151   0.868   5.397   2.023 -0.9603  0.0350  0.3769
 3845SOL    HW215152   0.851   5.305   2.046  0.2064  0.4356  3.1930
 3845SOL    HW315153   0.960   5.398   1.997  0.0460  0.8487  3.6173
 3845SOL    MW415154   0.878   5.385   2.022 -0.1238  0.1252  0.2562
 3846SOL     OW15155   1.923   1.135   4.107 -0.5919 -0.7812  0.3046
 3846SOL    HW215156   1.932   1.228   4.128  0.8344 -1.2858  2.3455
 3846SOL    HW315157   1.847   1.106   4.157  1.2668 -1.4351  2.9886
 3846SOL    MW415158   1.914   1.144   4.117 -0.3726  0.7394  0.0600
 3847SOL     OW15159   1.497   4.863   2.379 -0.1452  0.5996  0.0921
 3847SOL    HW215160   1.425   4.924   2.395 -0.1840  0.6124 -0.1339
 3847SOL    HW315161   1.572   4.902   2.424 -0.8236 -0.6047  2.4479
 3847SOL    MW415162   1.497   4.876   2.387 -0.7253  0.4283 -0.2058
 3848SOL     OW15163   2.779   0.861   4.461 -0.2911  0.3627  0.3458
 3848SOL    HW215164   2.818   0.846   4.375  0.5482  2.0327  0.3980
 3848SOL    HW315165   2.695   0.815   4.458  0.3677 -0.8501 -0.8172
 3848SOL    MW415166   2.773   0.853   4.449  0.3503 -0.6483 -0.0525
 3849SOL     OW15167   3.493   6.424   1.121 -0.3645 -0.3663  0.9291
 3849SOL    HW215168   3.552   6.411   1.196 -1.6979  1.0243  2.3171
 3849SOL    HW315169   3.549   6.416   1.044  1.6967  1.0843  2.1761
 3849SOL    MW415170   3.508   6.421   1.121 -0.0296 -0.2983  0.1921
 3850SOL     OW15171   2.426   6.394   2.022 -0.3901  0.4779 -0.0149
 3850SOL    HW215172   2.516   6.365   2.030 -0.4163  0.3369 -0.2263
 3850SOL    HW315173   2.427   6.485   2.051 -0.3959  0.1274  1.1288
 3850SOL    MW415174   2.438   6.402   2.027 -0.2243 -0.0725  0.0640
 3851SOL     OW15175   3.712   2.076   5.511 -0.3907  0.1790 -0.0362
 3851SOL    HW215176   3.732   2.101   5.420 -0.7724  3.9815  0.7549
 3851SOL    HW315177   3.618   2.062   5.512 -0.4608  0.6218 -0.1573
 3851SOL    MW415178   3.702   2.078   5.499  0.0828  0.1982 -0.3809
 3852SOL     OW15179   1.236   1.146   3.292 -0.7868 -0.0333  0.7757
 3852SOL    HW215180   1.297   1.203   3.340 -1.9222  0.3139  1.8783
 3852SOL    HW315181   1.151   1.189   3.302 -1.3185 -0.8229 -0.2057
 3852SOL    MW415182   1.233   1.160   3.300  0.0796  0.7667  0.1580
 3853SOL     OW15183   3.785   4.038   2.602  0.2268 -0.5083  0.3405
 3853SOL    HW215184   3.764   3.954   2.643 -0.2251 -0.5959 -0.0641
 3853SOL    HW315185   3.703   4.086   2.601  0.2036 -0.5460 -0.5408
 3853SOL    MW415186   3.771   4.033   2.607  0.9135  0.1375 -0.6845
 3854SOL     OW15187   2.369   3.419   3.143  0.2472  0.1783  0.2157
 3854SOL    HW215188   2.277   3.442   3.128  0.4251  1.6543  1.1098
 3854SOL    HW315189   2.366   3.359   3.218 -0.0292 -0.4741 -0.3045
 3854SOL    MW415190   2.357   3.414   3.151 -0.1121  0.3586 -0.0302
 3855SOL     OW15191   6.161   5.184   6.377  0.5579  0.1824  0.4932
 3855SOL    HW215192   6.224   5.117   6.404  1.2195  0.9477  0.9198
 3855SOL    HW315193   6.117   5.147   6.300  1.3725 -0.4663  0.3276
 3855SOL    MW415194   6.164   5.170   6.370 -0.5052 -0.5774  0.4352
 3856SOL     OW15195   6.179   1.549   3.811  0.0992 -0.2974 -0.6265
 3856SOL    HW215196   6.138   1.583   3.731  0.7425 -0.1027 -0.8762
 3856SOL    HW315197   6.256   1.604   3.824 -0.3065  0.0492  0.4575
 3856SOL    MW415198   6.184   1.561   3.802 -0.2237  0.4622 -0.3323
 3857SOL     OW15199   6.076   4.848   3.960 -0.0281  0.1941 -0.2036
 3857SOL    HW215200   6.068   4.938   3.993  1.2670  1.8312 -3.8057
 3857SOL    HW315201   6.021   4.846   3.882  0.3516 -2.0107 -0.4823
 3857SOL    MW415202   6.068   4.860   3.954  0.1003 -0.5617  0.3563
 3858SOL     OW15203   5.234   5.474   4.521  0.3958 -0.1627  0.0121
 3858SOL    HW215204   5.265   5.531   4.450  0.6520  0.7524  0.8309
 3858SOL    HW315205   5.295   5.400   4.521  1.3731  0.6219  0.2967
 3858SOL    MW415206   5.246   5.472   4.512  0.1778 -0.3744  0.2476
 3859SOL     OW15207   3.571   0.432   1.947  0.5212 -0.0667 -0.5955
 3859SOL    HW215208   3.570   0.502   1.881 -0.6370 -0.3262 -0.8810
 3859SOL    HW315209   3.521   0.361   1.906  0.0185 -0.3317  0.4552
 3859SOL    MW415210   3.564   0.432   1.933 -0.0990  0.1215  0.1660
 3860SOL     OW15211   1.431   5.264   4.814 -0.3722  0.1920 -0.3988
 3860SOL    HW215212   1.431   5.229   4.903  0.6009  0.3977 -0.3066
 3860SOL    HW315213   1.375   5.204   4.765  0.9118 -1.2656 -0.1566
 3860SOL    MW415214   1.424   5.252   4.820 -0.3741 -0.6540 -0.0198
 3861SOL     OW15215   1.504   5.836   0.707 -0.7111 -0.4203 -0.4428
 3861SOL    HW215216   1.477   5.761   0.761  0.4002 -0.9401 -0.5937
 3861SOL    HW315217   1.560   5.798   0.639  0.3394  0.6212 -0.1898
 3861SOL    MW415218   1.507   5.821   0.705  0.1401 -0.4655 -0.1961
 3862SOL     OW15219   2.994   0.179   4.257 -0.1524  0.1780  0.2009
 3862SOL    HW215220   2.966   0.135   4.177 -0.3896 -2.7287  1.7124
 3862SOL    HW315221   3.079   0.217   4.236 -0.3539 -0.2598 -1.5049
 3862SOL    MW415222   3.002   0.178   4.244  0.1382  0.3520  0.9866
 3863SOL     OW15223   4.001   1.373   2.956  0.4199  0.3164  0.1514
 3863SOL    HW215224   4.072   1.342   3.012  2.5647  0.9461 -2.0106
 3863SOL    HW315225   4.005   1.317   2.878 -1.6365  0.2431  0.0369
 3863SOL    MW415226   4.011   1.362   2.953  0.2609  0.1211 -0.2442
 3864SOL     OW15227   5.146   4.169   1.262  0.2379 -0.3479  0.2266
 3864SOL    HW215228   5.209   4.191   1.193 -1.2164  2.1673 -0.4463
 3864SOL    HW315229   5.195   4.181   1.343  1.5560 -1.9007 -0.2835
 3864SOL    MW415230   5.161   4.174   1.263 -0.4452 -0.4164  0.1441
 3865SOL     OW15231   2.437   4.179   2.477 -0.5967  0.3064 -0.1453
 3865SOL    HW215232   2.441   4.244   2.547 -0.3089 -0.5864  0.7053
 3865SOL    HW315233   2.394   4.103   2.518  1.1804 -0.8921 -0.3582
 3865SOL    MW415234   2.432   4.177   2.492 -0.5346 -0.5898  0.1759
 3866SOL     OW15235   0.836   0.119   1.873  0.2742 -0.3740  0.6817
 3866SOL    HW215236   0.879   0.037   1.897  0.2261 -0.5603  0.1302
 3866SOL    HW315237   0.750   0.114   1.915 -0.3555 -1.3311 -0.6664
 3866SOL    MW415238   0.830   0.108   1.882  0.3924 -0.4507 -0.8285
 3867SOL     OW15239   4.792   5.001   3.592 -0.2966 -0.5452  0.1414
 3867SOL    HW215240   4.763   5.091   3.608  0.1731 -0.4351  0.4073
 3867SOL    HW315241   4.760   4.952   3.668  0.6878 -0.3104  0.7184
 3867SOL    MW415242   4.784   5.006   3.604  0.0241  0.2318  0.0503
 3868SOL     OW15243   5.522   4.084   1.522  0.6874 -0.4968 -0.0154
 3868SOL    HW215244   5.584   4.083   1.449  1.7283  0.1497  0.8404
 3868SOL    HW315245   5.534   4.170   1.562 -0.6243 -0.4450  0.2979
 3868SOL    MW415246   5.532   4.095   1.517  0.4691  0.3713  0.2570
 3869SOL     OW15247   5.069   0.977   3.072  0.3364 -0.1268  0.2383
 3869SOL    HW215248   5.022   0.938   3.146  0.4596 -0.8071 -0.0285
 3869SOL    HW315249   5.015   1.051   3.045  0.9311  0.9177  1.7962
 3869SOL    MW415250   5.056   0.981   3.078 -0.0983  0.2565  0.1796
 3870SOL     OW15251   5.780   2.705   3.836 -0.5240  0.5463 -0.7995
 3870SOL    HW215252   5.745   2.616   3.833  1.1003 -0.2350  1.1807
 3870SOL    HW315253   5.708   2.760   3.806 -2.0655 -1.3077 -0.6832
 3870SOL    MW415254   5.766   2.700   3.832  0.2656 -0.1141  0.9632
 3871SOL     OW15255   2.997   6.179   0.890 -0.0546  0.6347 -0.5697
 3871SOL    HW215256   3.082   6.216   0.867  0.2851 -0.2227 -0.7686
 3871SOL    HW315257   2.940   6.254   0.904  0.7656  1.2181 -0.3326
 3871SOL    MW415258   3.001   6.194   0.889  0.1035 -0.2221 -0.0544
 3872SOL     OW15259   5.824   3.777   3.177  0.0362  0.1987  0.5280
 3872SOL    HW215260   5.914   3.799   3.152 -0.0563 -1.4987 -1.6737
 3872SOL    HW315261   5.809   3.691   3.137 -3.0932  1.1553 -0.6896
 3872SOL    MW415262   5.834   3.769   3.168  0.0229 -0.3278  0.3472
 3873SOL     OW15263   2.677   4.709   5.414  0.1979 -0.1085  0.3319
 3873SOL    HW215264   2.722   4.696   5.331 -0.6687 -0.8400 -0.0394
 3873SOL    HW315265   2.626   4.629   5.426  1.2207 -0.5497  2.1664
 3873SOL    MW415266   2.676   4.696   5.405  0.8514 -0.3693  0.1549
 3874SOL     OW15267   4.120   4.453   0.671  0.1796 -0.7672  0.1827
 3874SOL    HW215268   4.085   4.453   0.760 -0.2829 -0.7833  0.0052
 3874SOL    HW315269   4.176   4.530   0.667 -0.1586 -0.5122  0.3511
 3874SOL    MW415270   4.123   4.463   0.682 -0.1041 -0.1541  0.0343
 3875SOL     OW15271   4.345   2.238   2.693 -0.1804 -0.3187 -0.6688
 3875SOL    HW215272   4.273   2.262   2.750 -1.4139 -1.4975 -1.6489
 3875SOL    HW315273   4.406   2.312   2.698 -2.3942  1.6632 -1.3400
 3875SOL    MW415274   4.344   2.251   2.701 -0.7940  0.5929 -0.1480
 3876SOL     OW15275   5.512   3.591   0.443  0.0044  0.6039  0.1026
 3876SOL    HW215276   5.461   3.672   0.433  0.0146  0.7901  1.3764
 3876SOL    HW315277   5.578   3.613   0.509  1.1847  0.0937 -0.8755
 3876SOL    MW415278   5.514   3.605   0.450 -0.1394  0.1317 -0.0988
 3877SOL     OW15279   1.562   6.221   2.286 -0.6586 -0.1293  0.1844
 3877SOL    HW215280   1.507   6.148   2.314 -1.6759  0.4553 -0.2265
 3877SOL    HW315281   1.502   6.281   2.242  0.8478 -1.3117 -3.9992
 3877SOL    MW415282   1.547   6.219   2.284 -0.1453  0.5286 -0.1662
 3878SOL     OW15283   3.585   5.634   6.148  0.2165 -0.5707  0.6877
 3878SOL    HW215284   3.500   5.608   6.112 -0.0507  0.5999  0.4221
 3878SOL    HW315285   3.621   5.554   6.185 -0.4156 -1.3638 -0.3738
 3878SOL    MW415286   3.578   5.620   6.148 -0.1867 -0.0934  0.1382
 3879SOL     OW15287   4.092   1.353   1.147  0.0610 -0.0760 -0.1353
 3879SOL    HW215288   4.111   1.388   1.234 -1.8728 -0.9297  0.6903
 3879SOL    HW315289   4.177   1.323   1.114  0.9172  0.7844  1.2039
 3879SOL    MW415290   4.106   1.354   1.154 -0.1728 -0.4501  0.3183
 3880SOL     OW15291   2.468   0.088   5.178  0.4391 -0.6974 -0.0872
 3880SOL    HW215292   2.558   0.078   5.207  0.2497 -1.2878  0.3127
 3880SOL    HW315293   2.431   0.154   5.237  0.1148 -1.7432  0.9144
 3880SOL    MW415294   2.475   0.096   5.190  0.3678  0.2881 -0.0651
 3881SOL     OW15295   1.442   2.817   4.772 -0.4419 -0.6843  0.0889
 3881SOL    HW215296   1.423   2.749   4.837 -1.6199 -0.4641  0.0030
 3881SOL    HW315297   1.420   2.899   4.816  0.3379 -0.4056 -0.0357
 3881SOL    MW415298   1.436   2.819   4.786 -0.1015 -0.5124  0.8584
 3882SOL     OW15299   1.227   6.424   6.261 -0.0254 -0.1063 -0.8450
 3882SOL    HW215300   1.286   6.413   6.336 -0.9813 -1.2681 -0.2273
 3882SOL    HW315301   1.218   6.519   6.250 -1.1687  0.1327  1.5930
 3882SOL    MW415302   1.234   6.435   6.269  0.2198  0.3675 -0.1729
 3883SOL     OW15303   1.155   2.273   4.194 -0.1598 -0.0737  0.2748
 3883SOL    HW215304   1.136   2.367   4.193  1.3789  0.3318 -2.9043
 3883SOL    HW315305   1.074   2.232   4.163 -0.5264  0.2618  0.7651
 3883SOL    MW415306   1.141   2.280   4.190  0.1207  0.3052 -0.1858
 3884SOL     OW15307   6.139   2.149   1.308  0.2784 -0.7466 -0.3279
 3884SOL    HW215308   6.114   2.177   1.396 -0.2556 -2.3324  0.0694
 3884SOL    HW315309   6.123   2.225   1.252 -4.3669 -1.0784  0.0930
 3884SOL    MW415310   6.133   2.163   1.312  0.1213 -0.0014 -0.1502
 3885SOL     OW15311   1.647   3.352   3.450  0.4268 -0.1032 -0.1740
 3885SOL    HW215312   1.592   3.279   3.479  0.2909 -0.5115 -1.3711
 3885SOL    HW315313   1.586   3.412   3.406  0.5091  0.8436  0.9509
 3885SOL    MW415314   1.631   3.350   3.448  0.1003 -0.2944  0.8506
 3886SOL     OW15315   5.439   5.458   3.903  0.3710 -0.1349  0.1596
 3886SOL    HW215316   5.352   5.423   3.883 -0.4743  1.2153  1.3005
 3886SOL    HW315317   5.478   5.474   3.817 -0.2446 -1.3428 -0.3717
 3886SOL    MW415318   5.432   5.455   3.889 -0.1696  1.2280  0.3300
 3887SOL     OW15319   2.274   3.159   5.707 -0.2291 -0.8595  0.1060
 3887SOL    HW215320   2.293   3.202   5.623  1.0131 -0.6949  0.4553
 3887SOL    HW315321   2.179   3.167   5.716 -0.0967  1.7650  0.1145
 3887SOL    MW415322   2.264   3.166   5.697 -0.2421 -0.4280 -0.3026
 3888SOL     OW15323   5.749   3.521   0.314 -0.0324 -0.2368  0.2236
 3888SOL    HW215324   5.665   3.520   0.359 -0.6181 -1.4144 -0.8269
 3888SOL    HW315325   5.791   3.602   0.342 -0.9788 -0.2440  1.7413
 3888SOL    MW415326   5.744   3.531   0.323 -0.5870 -0.6348  0.0382
 3889SOL     OW15327   3.754   2.951   3.502 -0.5367  0.4552 -0.2193
 3889SOL    HW215328   3.669   2.919   3.471 -1.7711  2.4652  0.8690
 3889SOL    HW315329   3.798   2.982   3.423 -1.0284 -0.1181 -0.7287
 3889SOL    MW415330   3.748   2.951   3.487  0.4630  0.4470 -0.1255
 3890SOL     OW15331   5.384   5.046   5.701 -0.2611 -0.2205 -0.3802
 3890SOL    HW215332   5.435   5.081   5.774 -0.7536 -2.7031  1.2839
 3890SOL    HW315333   5.444   5.048   5.627  1.2569 -0.3231  0.7932
 3890SOL    MW415334   5.399   5.051   5.701  0.0037  0.1096 -0.4147
 3891SOL     OW15335   6.249   5.655   6.295 -0.0843 -0.1418  0.0768
 3891SOL    HW215336   6.211   5.704   6.222 -2.7832  0.2734  1.6284
 3891SOL    HW315337   6.250   5.564   6.265  1.3482  0.2990 -1.3856
 3891SOL    MW415338   6.244   5.649   6.282 -0.1537 -0.2701 -0.1136
 3892SOL     OW15339   2.891   5.241   0.793  0.5805 -0.1292 -0.8065
 3892SOL    HW215340   2.937   5.303   0.849 -1.2848  0.8192 -0.2257
 3892SOL    HW315341   2.887   5.284   0.707 -0.6935  0.6172 -0.4094
 3892SOL    MW415342   2.896   5.255   0.789 -0.4447  0.0939  0.4304
 3893SOL     OW15343   3.796   0.575   1.039  0.1586  0.0021 -0.0720
 3893SOL    HW215344   3.799   0.507   1.106  0.1328 -0.8062 -0.8781
 3893SOL    HW315345   3.709   0.613   1.046  0.5991  0.8590  1.2407
 3893SOL    MW415346   3.785   0.571   1.049 -0.3312 -0.2631  0.0950
 3894SOL     OW15347   6.277   6.044   1.736  0.0950  1.3429  0.4683
 3894SOL    HW215348   6.299   6.032   1.643 -2.0059  0.0870  0.0688
 3894SOL    HW315349   6.181   6.039   1.739  0.1551 -0.9199  2.9580
 3894SOL    MW415350   6.267   6.041   1.724 -0.4042 -0.1834 -0.1760
 3895SOL     OW15351   0.579   6.165   6.169  0.1742  0.6833  0.5578
 3895SOL    HW215352   0.594   6.094   6.230  0.2301 -1.5801 -1.8924
 3895SOL    HW315353   0.651   6.159   6.106 -0.8233  1.6949 -0.7544
 3895SOL    MW415354   0.590   6.155   6.169 -0.2405 -0.2447 -0.7191
 3896SOL     OW15355   1.183   0.683   4.781  0.1723 -0.2287  0.6010
 3896SOL    HW215356   1.267   0.729   4.778  0.5533 -0.9601 -1.0830
 3896SOL    HW315357   1.133   0.721   4.708 -0.2169 -1.1422  0.3821
 3896SOL    MW415358   1.187   0.694   4.771 -0.2425 -0.5393 -0.0353
 3897SOL     OW15359   2.116   0.059   1.044  0.3602 -0.4692  0.2406
 3897SOL    HW215360   2.087   0.002   1.115 -0.9938  0.0391  0.1196
 3897SOL    HW315361   2.209   0.075   1.063  0.1377 -0.6900  1.6465
 3897SOL    MW415362   2.125   0.054   1.056 -0.2946 -0.1178 -0.6861
 3898SOL     OW15363   5.480   0.361   2.986 -0.0596 -0.3396 -0.3656
 3898SOL    HW215364   5.503   0.269   2.982  0.5676 -0.1701 -0.9297
 3898SOL    HW315365   5.532   0.396   3.059 -1.3994 -0.7098  0.8191
 3898SOL    MW415366   5.490   0.354   2.995 -0.0998 -0.0889 -0.4721
 3899SOL     OW15367   2.731   0.995   4.077  0.1717 -0.3762 -0.2438
 3899SOL    HW215368   2.793   1.050   4.029  0.9606 -2.0444 -1.2416
 3899SOL    HW315369   2.786   0.943   4.135 -0.3113 -1.4837 -0.7358
 3899SOL    MW415370   2.747   0.996   4.078 -0.0251 -0.4605  0.1058
 3900SOL     OW15371   5.272   4.276   3.704 -0.2258  0.4557 -0.5528
 3900SOL    HW215372   5.357   4.315   3.725 -0.2179  0.3135 -0.3190
 3900SOL    HW315373   5.221   4.286   3.785 -0.6554  1.1376 -0.8956
 3900SOL    MW415374   5.277   4.283   3.718 -0.2905 -0.1970 -0.2640
 3901SOL     OW15375   1.785   1.957   2.306 -0.2361  0.1684 -0.0651
 3901SOL    HW215376   1.709   1.917   2.263 -1.1108  1.6622  0.0030
 3901SOL    HW315377   1.747   2.012   2.374  1.0791 -1.2493  1.9129
 3901SOL    MW415378   1.770   1.959   2.309 -0.0443 -0.2899  0.2489
 3902SOL     OW15379   4.821   1.602   5.361  0.0959 -0.1151 -0.1430
 3902SOL    HW215380   4.805   1.625   5.452  0.0561  0.6844 -0.3466
 3902SOL    HW315381   4.889   1.663   5.332  1.1028 -1.2482 -0.2601
 3902SOL    MW415382   4.828   1.613   5.369  0.5628  0.5292 -0.1071
 3903SOL     OW15383   6.122   1.695   2.061  0.6368 -0.3625 -0.0667
 3903SOL    HW215384   6.112   1.786   2.034 -0.4580  0.0827  1.6400
 3903SOL    HW315385   6.203   1.694   2.112 -0.3764  0.1462  1.6207
 3903SOL    MW415386   6.131   1.707   2.064  0.4097 -0.3375 -0.3411
 3904SOL     OW15387   4.492   4.922   1.193 -0.0673 -0.1698 -0.5952
 3904SOL    HW215388   4.572   4.974   1.207 -1.4507  1.8487  0.4100
 3904SOL    HW315389   4.428   4.961   1.253 -1.9444 -1.4271 -1.6822
 3904SOL    MW415390   4.494   4.934   1.203 -0.5163  0.3980  0.0023
 3905SOL     OW15391   5.986   0.856   5.724  0.1467 -0.0852 -0.1693
 3905SOL    HW215392   6.025   0.894   5.802  0.2151 -0.2598 -0.1177
 3905SOL    HW315393   6.040   0.888   5.652 -2.2958  3.5381 -0.6641
 3905SOL    MW415394   5.998   0.865   5.725  0.6350 -0.4527  0.1560
 3906SOL     OW15395   3.067   2.509   1.341 -0.1914  0.3728  0.5464
 3906SOL    HW215396   3.010   2.450   1.392 -1.8553  1.9429  0.6117
 3906SOL    HW315397   3.131   2.540   1.404  0.2220 -0.7394  0.6996
 3906SOL    MW415398   3.068   2.505   1.357  0.2099  0.7744 -0.3729
 3907SOL     OW15399   1.845   2.260   3.515  0.2132  0.3798  0.2343
 3907SOL    HW215400   1.798   2.292   3.592  1.2562  1.5991  0.4038
 3907SOL    HW315401   1.818   2.169   3.506  0.8563 -0.1179  2.6689
 3907SOL    MW415402   1.835   2.253   3.524  0.5134 -0.8406  0.2374
 3908SOL     OW15403   3.192   4.707   2.800 -0.6554 -0.0682 -0.5819
 3908SOL    HW215404   3.208   4.788   2.753  0.6682  0.7912  1.2361
 3908SOL    HW315405   3.202   4.730   2.892  0.1687 -2.3666 -0.0180
 3908SOL    MW415406   3.195   4.721   2.806  0.2049  0.2052 -0.2946
 3909SOL     OW15407   2.324   1.578   0.324  0.1736  1.2654 -0.9102
 3909SOL    HW215408   2.340   1.524   0.247 -0.3148  0.4919 -0.4932
 3909SOL    HW315409   2.230   1.566   0.342  0.2517  1.5512 -0.2946
 3909SOL    MW415410   2.313   1.569   0.316  0.2440  0.5565  0.1019
 3910SOL     OW15411   4.375   4.513   1.276 -0.6478 -0.5206  0.4852
 3910SOL    HW215412   4.370   4.451   1.349  1.0525 -0.8449  0.3812
 3910SOL    HW315413   4.469   4.521   1.258 -0.7209  2.7535  1.0443
 3910SOL    MW415414   4.387   4.506   1.283 -0.7567 -0.0859 -0.0715
 3911SOL     OW15415   0.884   1.318   4.099 -0.5642 -0.1888  0.3677
 3911SOL    HW215416   0.973   1.285   4.109 -0.8986 -1.1320  0.2704
 3911SOL    HW315417   0.894   1.414   4.101  0.5887 -0.2507 -0.7833
 3911SOL    MW415418   0.897   1.327   4.100  0.0474 -0.2088  0.6216
 3912SOL     OW15419   4.739   3.435   4.316 -0.3208 -0.0199 -0.3849
 3912SOL    HW215420   4.724   3.526   4.340  0.2833 -0.2235  0.8228
 3912SOL    HW315421   4.728   3.433   4.221  0.8433  1.5508 -0.5879
 3912SOL    MW415422   4.736   3.446   4.306  0.0259 -0.1286  0.1467
 3913SOL     OW15423   0.226   3.092   3.544  0.0792 -0.2219  0.1475
 3913SOL    HW215424   0.161   3.053   3.602 -0.0465  0.6509  0.5968
 3913SOL    HW315425   0.309   3.054   3.573 -0.0178 -0.0074  0.7066
 3913SOL    MW415426   0.229   3.082   3.555  0.0547  0.0548 -0.1349
 3914SOL     OW15427   0.306   0.758   0.121  0.3079  0.1518  0.0993
 3914SOL    HW215428   0.284   0.773   0.028  1.0129 -0.7361 -0.2218
 3914SOL    HW315429   0.344   0.841   0.150  1.1523  0.0699 -0.7354
 3914SOL    MW415430   0.308   0.771   0.112 -0.0932  0.2589 -0.0642
 3915SOL     OW15431   3.543   0.652   0.990  1.2360 -0.0975 -0.7937
 3915SOL    HW215432   3.523   0.650   0.897 -0.5764 -0.4204 -0.4340
 3915SOL    HW315433   3.466   0.693   1.030  0.2793 -3.2671  0.9078
 3915SOL    MW415434   3.530   0.657   0.983 -0.9886 -0.1702  0.1072
 3916SOL     OW15435   2.594   5.432   3.690 -0.3696  0.1075  0.2212
 3916SOL    HW215436   2.570   5.353   3.640  2.1482 -0.2030 -0.6263
 3916SOL    HW315437   2.656   5.401   3.755 -0.5337  1.1813  0.9069
 3916SOL    MW415438   2.599   5.418   3.692  0.4738 -0.1458  0.1369
 3917SOL     OW15439   0.962   5.240   0.231  0.5648  0.1632  0.0066
 3917SOL    HW215440   0.927   5.230   0.320  1.6700 -3.0844  0.2223
 3917SOL    HW315441   0.919   5.171   0.181  0.9486  1.1035 -1.6697
 3917SOL    MW415442   0.952   5.230   0.236  0.2492 -0.2907 -0.2175
 3918SOL     OW15443   1.588   4.891   1.243  0.7244  0.4217 -0.0975
 3918SOL    HW215444   1.519   4.825   1.243  1.0944  0.0251 -0.7181
 3918SOL    HW315445   1.571   4.945   1.166  0.2569  1.2401  0.5669
 3918SOL    MW415446   1.577   4.889   1.233 -0.3098  0.2194 -0.2860
 3919SOL     OW15447   4.333   3.233   6.083 -0.3518  0.1364  0.2338
 3919SOL    HW215448   4.419   3.207   6.115  0.6092  1.0913 -1.4044
 3919SOL    HW315449   4.322   3.184   6.002 -1.2335  0.2404  0.2790
 3919SOL    MW415450   4.343   3.223   6.076 -0.3277  0.5496 -0.3263
 3920SOL     OW15451   1.526   2.804   6.314 -0.2237  0.0601 -0.3166
 3920SOL    HW215452   1.614   2.772   6.297  0.0024 -0.4480  1.6300
 3920SOL    HW315453   1.469   2.729   6.294 -0.1290  0.0160 -0.4248
 3920SOL    MW415454   1.530   2.790   6.309  0.1307 -0.2986  0.5956
 3921SOL     OW15455   5.118   0.166   5.014  0.0082  0.1922  0.0189
 3921SOL    HW215456   5.070   0.093   5.052 -1.4096  0.7034 -0.7184
 3921SOL    HW315457   5.123   0.231   5.085 -0.0031 -0.0377  0.2304
 3921SOL    MW415458   5.112   0.165   5.028  0.6017  0.2968  0.0001
 3922SOL     OW15459   0.390   6.123   1.098  0.0694  0.1192  0.1268
 3922SOL    HW215460   0.412   6.035   1.067 -2.1628 -1.2229  2.0371
 3922SOL    HW315461   0.423   6.126   1.188 -0.8386  0.8221  0.4477
 3922SOL    MW415462   0.398   6.111   1.106 -0.4431  0.4724  0.6779
 3923SOL     OW15463   4.515   3.354   4.458  0.0896  0.1283  0.1552
 3923SOL    HW215464   4.539   3.276   4.508 -1.0333 -0.2044  0.2083
 3923SOL    HW315465   4.589   3.370   4.400  1.1054  0.1020  1.4158
 3923SOL    MW415466   4.528   3.346   4.457  0.0456  0.3670 -1.0130
 3924SOL     OW15467   2.970   0.496   2.915  0.3025 -0.2380  0.2511
 3924SOL    HW215468   2.923   0.531   2.839 -1.1577 -1.2115  0.6658
 3924SOL    HW315469   3.054   0.541   2.914  0.0674  0.2237 -1.5770
 3924SOL    MW415470   2.975   0.507   2.905 -0.2670  0.6673  0.2434
 3925SOL     OW15471   4.119   0.679   4.248 -0.1382 -0.7400  0.0407
 3925SOL    HW215472   4.114   0.717   4.160 -0.2503 -0.4675  0.1652
 3925SOL    HW315473   4.175   0.602   4.237  1.2829  0.2468  0.0703
 3925SOL    MW415474   4.126   0.673   4.235 -0.0016  0.1512  0.3504
 3926SOL     OW15475   5.841   4.372   1.767  0.1360 -0.0764 -0.8022
 3926SOL    HW215476   5.784   4.427   1.820  1.2673  0.0073  0.3748
 3926SOL    HW315477   5.906   4.432   1.731 -0.1776 -0.2521 -1.7050
 3926SOL    MW415478   5.842   4.387   1.769  0.3147 -0.0995  0.6577
 3927SOL     OW15479   3.265   0.780   0.468  0.0567 -0.6562 -0.1337
 3927SOL    HW215480   3.295   0.742   0.386  0.0289  0.1734 -0.5399
 3927SOL    HW315481   3.192   0.725   0.496 -0.8387 -0.1508 -1.3907
 3927SOL    MW415482   3.259   0.768   0.461  0.5998  0.1389  0.0954
 3928SOL     OW15483   2.309   1.656   1.564 -0.3371 -0.4132 -0.2617
 3928SOL    HW215484   2.382   1.644   1.625 -0.0024  1.0807 -0.3143
 3928SOL    HW315485   2.239   1.693   1.618 -0.3583  0.0320 -0.5805
 3928SOL    MW415486   2.309   1.659   1.579 -0.7537 -0.1209  0.0435
 3929SOL     OW15487   4.448   4.440   2.635  0.3037  0.3378  0.1778
 3929SOL    HW215488   4.386   4.485   2.692  0.2461  0.6029 -0.0929
 3929SOL    HW315489   4.534   4.461   2.671  0.3343  1.4254 -0.4750
 3929SOL    MW415490   4.451   4.448   2.647 -0.5878 -0.0234 -0.3888
 3930SOL     OW15491   1.717   4.071   4.339 -0.2160  0.1301 -0.7984
 3930SOL    HW215492   1.683   4.071   4.429 -0.0803  0.3151 -0.7470
 3930SOL    HW315493   1.646   4.035   4.287 -0.7414  1.1203 -0.7868
 3930SOL    MW415494   1.704   4.066   4.344  0.2683 -0.2643 -0.2452
 3931SOL     OW15495   4.534   3.227   2.102  0.1384 -0.3119  0.0391
 3931SOL    HW215496   4.552   3.271   2.185 -0.1840  4.0664 -1.8898
 3931SOL    HW315497   4.619   3.220   2.059 -0.0729  0.9667 -0.6643
 3931SOL    MW415498   4.547   3.232   2.107 -0.0168 -0.6454  0.7336
 3932SOL     OW15499   4.620   4.199   1.336 -0.2389  0.1994 -0.0932
 3932SOL    HW215500   4.545   4.198   1.276 -0.2250  1.0098 -0.1340
 3932SOL    HW315501   4.595   4.261   1.404 -0.8721 -1.7589  1.5706
 3932SOL    MW415502   4.607   4.207   1.337  0.0302  0.0273  1.0263
 3933SOL     OW15503   1.911   1.854   6.339 -0.2839  0.1776 -0.0635
 3933SOL    HW215504   1.925   1.936   6.385  0.3626 -0.6652  1.2935
 3933SOL    HW315505   1.853   1.877   6.266 -0.9167  1.6374  0.8581
 3933SOL    MW415506   1.906   1.867   6.335 -0.1658 -0.2354 -0.3061
 3934SOL     OW15507   4.841   4.889   5.307  0.1412  0.4922  0.3740
 3934SOL    HW215508   4.794   4.807   5.289  0.0225  1.0343 -2.2862
 3934SOL    HW315509   4.927   4.876   5.268  1.0647  0.7468  2.2348
 3934SOL    MW415510   4.846   4.876   5.299 -0.2487  0.0706 -0.0543
 3935SOL     OW15511   3.712   4.857   1.765  0.5580  0.4958 -0.3280
 3935SOL    HW215512   3.714   4.823   1.675 -2.1032 -0.9856  0.0940
 3935SOL    HW315513   3.716   4.779   1.820 -0.5496  1.1838  0.7715
 3935SOL    MW415514   3.713   4.842   1.760 -0.1835 -0.1551  0.1637
 3936SOL     OW15515   6.302   0.457   4.151 -0.3521 -0.3536 -0.2711
 3936SOL    HW215516   6.307   0.544   4.113 -0.1215 -0.4839 -0.5417
 3936SOL    HW315517   6.213   0.451   4.187 -0.5537 -0.2136 -0.7436
 3936SOL    MW415518   6.291   0.468   4.151  0.0613  0.1210 -0.1851
 3937SOL     OW15519   4.778   0.199   0.801 -0.5809  0.4937  0.4103
 3937SOL    HW215520   4.701   0.256   0.802  0.4766  2.0628  3.1116
 3937SOL    HW315521   4.846   0.252   0.760 -0.4822 -0.2426 -0.4006
 3937SOL    MW415522   4.777   0.213   0.796 -0.3589 -0.1765  0.0627
 3938SOL     OW15523   3.650   5.315   6.104 -0.4973  0.2127 -0.3579
 3938SOL    HW215524   3.716   5.260   6.146 -0.4462  1.9466  2.0165
 3938SOL    HW315525   3.699   5.389   6.069 -1.1551  2.0575  2.3466
 3938SOL    MW415526   3.665   5.317   6.105  0.6282  0.2372 -0.1719
 3939SOL     OW15527   1.415   3.913   2.487 -0.8154 -0.1854  0.1180
 3939SOL    HW215528   1.466   3.834   2.471 -1.9710 -1.0377  0.4447
 3939SOL    HW315529   1.395   3.947   2.400 -0.6559 -0.4980 -0.0433
 3939SOL    MW415530   1.419   3.907   2.474 -0.2099 -0.3765 -0.5802
 3940SOL     OW15531   5.669   1.429   2.986  0.0708  0.4129  0.1927
 3940SOL    HW215532   5.763   1.415   2.975  0.4034  2.7532 -0.5728
 3940SOL    HW315533   5.659   1.524   2.996 -2.1724  0.1894  0.7968
 3940SOL    MW415534   5.680   1.440   2.986 -0.3019  0.2252 -0.1339
 3941SOL     OW15535   0.529   2.959   4.712 -0.3148  0.1439 -0.5601
 3941SOL    HW215536   0.593   3.004   4.657 -0.0091  1.1140  0.5545
 3941SOL    HW315537   0.481   3.029   4.756 -0.9102 -0.5995  0.0002
 3941SOL    MW415538   0.531   2.974   4.711  0.7754  0.2937 -0.3928
 3942SOL     OW15539   4.605   2.613   0.885  0.0252 -0.1194  0.2409
 3942SOL    HW215540   4.521   2.643   0.851 -0.2633 -0.4877  0.6203
 3942SOL    HW315541   4.652   2.693   0.908 -0.4850  0.0607  0.6528
 3942SOL    MW415542   4.600   2.627   0.884  0.5602  0.0275 -0.2925
 3943SOL     OW15543   0.735   0.679   6.094 -0.2907  0.3376 -0.6402
 3943SOL    HW215544   0.680   0.664   6.017  1.1529  0.4888 -1.7400
 3943SOL    HW315545   0.673   0.701   6.163 -1.7071 -0.8185 -1.4853
 3943SOL    MW415546   0.720   0.680   6.093  0.0476  0.2324 -0.3036
 3944SOL     OW15547   5.639   6.362   2.593  0.0964 -0.0102  0.1150
 3944SOL    HW215548   5.626   6.358   2.498  0.7878  0.9055 -0.0318
 3944SOL    HW315549   5.654   6.455   2.612  1.5042 -0.3628  0.8969
 3944SOL    MW415550   5.639   6.374   2.583  0.6125 -0.1353 -0.0491
 3945SOL     OW15551   3.699   1.748   4.005  0.1863 -0.3396  0.6073
 3945SOL    HW215552   3.737   1.661   3.997 -1.1558 -0.8044 -1.8667
 3945SOL    HW315553   3.631   1.740   4.072 -1.1109 -1.7403 -0.7917
 3945SOL    MW415554   3.695   1.736   4.013  0.3313 -0.5361 -0.6380
 3946SOL     OW15555   0.812   2.438   3.887 -0.1069  0.6436  0.2333
 3946SOL    HW215556   0.786   2.507   3.825  2.8769  1.0667 -0.6762
 3946SOL    HW315557   0.844   2.486   3.963 -1.6171  0.1424  1.2221
 3946SOL    MW415558   0.813   2.454   3.889 -0.5964  0.2250 -0.0756
 3947SOL     OW15559   4.929   4.230   3.320  0.4556  0.3270  0.1806
 3947SOL    HW215560   4.980   4.185   3.387  1.0687 -0.7774 -0.9859
 3947SOL    HW315561   4.992   4.249   3.250 -0.6819 -1.1010 -1.3137
 3947SOL    MW415562   4.944   4.227   3.319  0.2043  0.0927 -0.6196
 3948SOL     OW15563   5.144   3.986   3.932 -0.0373 -0.0432  0.1812
 3948SOL    HW215564   5.228   3.989   3.886  0.4814 -0.7592  1.0419
 3948SOL    HW315565   5.124   4.077   3.954  0.6249  0.1095  0.1553
 3948SOL    MW415566   5.152   3.998   3.929 -0.4203  0.5484  0.1070
 3949SOL     OW15567   3.221   0.441   0.317  0.1051 -0.2854  0.1930
 3949SOL    HW215568   3.167   0.514   0.286 -1.1405 -0.7756  1.1236
 3949SOL    HW315569   3.218   0.377   0.246 -1.8115 -0.9316  0.7938
 3949SOL    MW415570   3.213   0.442   0.304  0.1248 -0.2283 -0.1413
 3950SOL     OW15571   3.278   3.147   2.051 -0.6715  0.3677 -0.4063
 3950SOL    HW215572   3.202   3.089   2.041 -0.9201  0.4702  0.8021
 3950SOL    HW315573   3.250   3.229   2.011 -1.2812  0.4689  0.2098
 3950SOL    MW415574   3.264   3.150   2.044  0.4505  0.1537  0.1156
 3951SOL     OW15575   2.047   6.157   5.223  0.6317  0.6399  0.1701
 3951SOL    HW215576   2.076   6.142   5.133  0.1917  2.3916 -0.3007
 3951SOL    HW315577   2.055   6.252   5.236  0.5190  0.4474  1.9251
 3951SOL    MW415578   2.052   6.168   5.213  0.2751 -0.0692  0.2149
 3952SOL     OW15579   4.428   4.368   1.503  0.5230  0.2734  0.3770
 3952SOL    HW215580   4.488   4.437   1.531 -1.2802  2.1859 -0.2611
 3952SOL    HW315581   4.355   4.374   1.564  0.0235 -0.6562 -0.1074
 3952SOL    MW415582   4.426   4.378   1.515  0.0544  0.0036  0.3438
 3953SOL     OW15583   5.324   5.237   2.295  0.2122  0.0108  0.5383
 3953SOL    HW215584   5.290   5.235   2.206 -0.0983 -0.9056  0.6701
 3953SOL    HW315585   5.321   5.146   2.324  0.8658  0.2159  1.2772
 3953SOL    MW415586   5.319   5.225   2.287  0.3899 -0.1888 -0.0996
 3954SOL     OW15587   3.238   2.226   2.493  0.5288 -0.0840 -0.2808
 3954SOL    HW215588   3.254   2.143   2.448 -0.0797 -0.0063 -0.6458
 3954SOL    HW315589   3.318   2.276   2.479 -0.0214  0.3377 -2.1753
 3954SOL    MW415590   3.251   2.222   2.485 -0.0755 -0.0159  0.0382
 3955SOL     OW15591   5.019   4.858   4.167 -0.3878  0.3350  0.5730
 3955SOL    HW215592   4.983   4.946   4.157 -2.7577 -0.3406  2.3178
 3955SOL    HW315593   5.046   4.854   4.259  0.0729 -0.6454  0.4057
 3955SOL    MW415594   5.018   4.869   4.178 -0.0267  0.0850  0.5141
 3956SOL     OW15595   3.120   0.268   1.493  0.1273 -0.7546  0.3687
 3956SOL    HW215596   3.100   0.267   1.400  1.0419  1.9329  0.0791
 3956SOL    HW315597   3.161   0.183   1.510 -2.5052 -2.4211 -1.0252
 3956SOL    MW415598   3.123   0.257   1.483  0.5710 -0.0271  0.2354
 3957SOL     OW15599   2.276   0.039   4.453 -0.0465  0.3819  0.7052
 3957SOL    HW215600   2.298  -0.029   4.389  1.7914  2.1166 -0.6196
 3957SOL    HW315601   2.295  -0.001   4.538  1.4199 -0.6341 -0.0632
 3957SOL    MW415602   2.282   0.024   4.456 -0.0105  0.1376 -0.0379
 3958SOL     OW15603   5.370   6.167   6.003  0.0064  0.0139  0.8999
 3958SOL    HW215604   5.405   6.100   6.063  1.5927  0.7684  0.8852
 3958SOL    HW315605   5.403   6.250   6.039  0.2323  0.5530 -0.4969
 3958SOL    MW415606   5.379   6.169   6.016  0.4380  0.4034 -0.1717
 3959SOL     OW15607   2.088   2.740   1.651 -0.0223 -0.0282  0.6448
 3959SOL    HW215608   2.164   2.695   1.614  0.7949  1.3299  0.6190
 3959SOL    HW315609   2.036   2.765   1.575  0.4590  0.6804  0.5416
 3959SOL    MW415610   2.091   2.737   1.636  0.0164  0.7507 -0.5058
 3960SOL     OW15611   0.836   4.248   2.735  0.4828 -0.1780  0.2526
 3960SOL    HW215612   0.910   4.191   2.758  0.1473 -1.1744 -1.0254
 3960SOL    HW315613   0.767   4.222   2.796  0.7177 -0.2720  0.4839
 3960SOL    MW415614   0.837   4.237   2.746  0.1231 -0.6132 -0.0741
 3961SOL     OW15615   4.576   4.471   0.779  0.7375  0.0275  0.5762
 3961SOL    HW215616   4.648   4.466   0.843  0.5474 -1.2285  0.7123
 3961SOL    HW315617   4.618   4.456   0.695  0.7607  0.1709  0.5616
 3961SOL    MW415618   4.591   4.468   0.777  0.0270 -0.1669  0.3151
 3962SOL     OW15619   6.420   2.867   4.452  0.5068 -0.1701 -0.1232
 3962SOL    HW215620   6.430   2.920   4.373 -1.1140  0.8714  0.3090
 3962SOL    HW315621   6.326   2.851   4.459  0.8399 -2.4361  0.2415
 3962SOL    MW415622   6.409   2.872   4.443  0.2238  0.2845  0.3142
 3963SOL     OW15623   5.065   5.945   5.674 -0.2815  0.4417 -0.2569
 3963SOL    HW215624   5.160   5.947   5.663 -0.0589  0.7412  1.3947
 3963SOL    HW315625   5.030   5.983   5.593  1.0567  1.3145 -0.4601
 3963SOL    MW415626   5.073   5.951   5.662 -0.1611  0.1153 -0.1846
 3964SOL     OW15627   3.611   5.884   2.139 -0.4273 -0.5218 -0.0209
 3964SOL    HW215628   3.547   5.853   2.202 -0.2641 -0.8342 -0.0050
 3964SOL    HW315629   3.629   5.807   2.084 -0.4293 -0.3046 -0.3282
 3964SOL    MW415630   3.605   5.870   2.140  0.0839 -0.1020 -0.0256
 3965SOL     OW15631   3.934   4.905   2.203 -0.4379 -0.0520 -0.3388
 3965SOL    HW215632   3.950   4.996   2.226  0.0852 -0.1962 -0.1155
 3965SOL    HW315633   3.941   4.857   2.285  0.3739 -0.4265 -0.6122
 3965SOL    MW415634   3.937   4.910   2.217 -0.0863  0.4644 -0.4287
 3966SOL     OW15635   0.801   5.730   4.400  0.2434 -0.0816  0.4835
 3966SOL    HW215636   0.829   5.651   4.353 -0.6852 -0.3435  0.3474
 3966SOL    HW315637   0.707   5.736   4.383  0.3489  1.2112  0.2763
 3966SOL    MW415638   0.792   5.720   4.392  0.3877  0.1500  0.4684
 3967SOL     OW15639   5.727   0.542   0.149 -0.2916 -0.5505 -0.1244
 3967SOL    HW215640   5.663   0.517   0.083 -2.0673 -0.6131  1.5385
 3967SOL    HW315641   5.727   0.469   0.212  0.0957  0.2526  0.8311
 3967SOL    MW415642   5.719   0.529   0.149 -0.1042  0.2237 -0.1738
 3968SOL     OW15643   5.551   5.938   0.032 -0.0512 -0.0582 -0.0091
 3968SOL    HW215644   5.606   6.000   0.080  0.6070 -0.2839 -0.4475
 3968SOL    HW315645   5.464   5.948   0.070 -0.1480  1.7280 -0.6228
 3968SOL    MW415646   5.547   5.948   0.043 -0.2962 -0.1641 -0.5156
 3969SOL     OW15647   0.492   2.747   0.125 -0.2662  0.2495 -0.3336
 3969SOL    HW215648   0.527   2.768   0.212  0.6537 -1.1016 -0.3381
 3969SOL    HW315649   0.447   2.826   0.097  0.5025  1.1345  0.8440
 3969SOL    MW415650   0.490   2.760   0.133 -0.0324 -0.1439 -0.1568
 3970SOL     OW15651   4.390   3.125   0.945  0.2076 -0.1305  0.1121
 3970SOL    HW215652   4.396   3.097   0.853 -0.4316  0.6845 -0.1931
 3970SOL    HW315653   4.329   3.063   0.984  0.3768 -0.4008 -0.0458
 3970SOL    MW415654   4.383   3.114   0.938 -0.3573  0.3096 -0.3415
 3971SOL     OW15655   4.057   5.017   6.345  0.0594  0.3934 -0.1893
 3971SOL    HW215656   4.056   4.946   6.281  3.2280  0.6082 -0.6340
 3971SOL    HW315657   4.034   4.975   6.428  2.4833 -1.3648 -0.3196
 3971SOL    MW415658   4.054   5.002   6.348 -0.0278  0.0463  0.4485
 3972SOL     OW15659   0.432   4.813   0.609  0.5843 -0.0141 -0.4153
 3972SOL    HW215660   0.462   4.786   0.696 -0.3524  0.0534 -0.0605
 3972SOL    HW315661   0.510   4.847   0.567  1.1907 -0.6205  0.1729
 3972SOL    MW415662   0.446   4.814   0.615  0.9061  0.2919 -0.0352
 3973SOL     OW15663   1.967   2.017   5.054 -0.2987  0.1527  0.2100
 3973SOL    HW215664   2.042   2.069   5.083 -2.2573  3.8442 -0.6026
 3973SOL    HW315665   1.946   1.961   5.129  1.1259  1.6276  1.8036
 3973SOL    MW415666   1.974   2.017   5.068 -0.4352 -0.3810  0.0326
 3974SOL     OW15667   4.029   2.582   1.112 -0.1821  0.1436  0.5146
 3974SOL    HW215668   4.022   2.541   1.026  1.7030  0.1038  0.3413
 3974SOL    HW315669   3.987   2.519   1.171  0.2973 -0.8015 -0.1120
 3974SOL    MW415670   4.022   2.568   1.108 -0.1621  0.0334  0.0280
 3975SOL     OW15671   2.963   4.542   5.591  0.7772  0.2408  0.4548
 3975SOL    HW215672   2.916   4.611   5.637 -1.4289 -1.0847  0.3185
 3975SOL    HW315673   3.002   4.489   5.661  0.3622  0.1916  0.6490
 3975SOL    MW415674   2.962   4.544   5.607  0.0767 -0.2913  0.0614
 3976SOL     OW15675   2.476   2.425   0.039 -0.0431  0.0498 -1.0615
 3976SOL    HW215676   2.500   2.517   0.022 -1.4999  0.6684  0.0135
 3976SOL    HW315677   2.556   2.386   0.074  0.1967  1.3128 -0.1235
 3976SOL    MW415678   2.490   2.432   0.041 -0.6139  0.3408 -0.3815
 3977SOL     OW15679   3.656   1.205   5.790  0.3237 -0.2551 -0.0408
 3977SOL    HW215680   3.586   1.143   5.770 -0.8550 -0.1798  3.2643
 3977SOL    HW315681   3.724   1.151   5.831 -0.9670  0.5013  3.4298
 3977SOL    MW415682   3.655   1.190   5.793  0.2531  0.3456 -0.4536
 3978SOL     OW15683   1.655   3.479   5.348 -0.4330  0.1663 -0.2226
 3978SOL    HW215684   1.669   3.552   5.409 -0.1287  0.3947 -0.5597
 3978SOL    HW315685   1.679   3.515   5.262  0.4583 -0.5487 -0.2906
 3978SOL    MW415686   1.660   3.494   5.345  0.1866  0.7539  0.2326
 3979SOL     OW15687   1.655   4.493   3.735 -0.2175  0.2654  0.4423
 3979SOL    HW215688   1.698   4.408   3.728  0.1433  0.2834  2.1631
 3979SOL    HW315689   1.565   4.472   3.761 -0.8170  0.3299 -1.3865
 3979SOL    MW415690   1.649   4.479   3.737  0.5905 -0.2337 -0.3537
 3980SOL     OW15691   6.014   1.680   4.265  0.1357  0.0627  0.0052
 3980SOL    HW215692   6.064   1.599   4.253 -0.9216 -0.6418  0.3122
 3980SOL    HW315693   6.081   1.749   4.264  1.1860 -0.8967  0.9822
 3980SOL    MW415694   6.030   1.678   4.263  0.1825 -0.9451 -0.8114
 3981SOL     OW15695   4.033   2.977   3.815 -1.0134 -0.2910  0.1755
 3981SOL    HW215696   3.987   3.048   3.769  0.4540 -0.6426 -1.9715
 3981SOL    HW315697   4.017   2.995   3.908 -2.9549  1.2656 -0.3899
 3981SOL    MW415698   4.025   2.989   3.821 -0.1143 -0.1769 -0.0198
 3982SOL     OW15699   1.935   6.116   6.294 -0.0514  0.0844 -0.0312
 3982SOL    HW215700   1.998   6.154   6.233 -0.4366 -0.4310 -0.7678
 3982SOL    HW315701   1.909   6.033   6.253  0.7579 -0.9785  1.5286
 3982SOL    MW415702   1.940   6.110   6.280 -0.4262 -0.1230 -0.3781
 3983SOL     OW15703   0.270   3.350   5.002 -0.2157 -0.5372 -0.1392
 3983SOL    HW215704   0.176   3.354   4.987 -0.1067  1.4801 -0.4714
 3983SOL    HW315705   0.279   3.351   5.098 -0.5262 -0.8407 -0.1060
 3983SOL    MW415706   0.259   3.351   5.013 -0.3889 -0.2926  0.2368
 3984SOL     OW15707   3.567   0.706   5.957  0.1164 -0.0921 -0.0163
 3984SOL    HW215708   3.628   0.754   5.900 -0.0895 -0.1307 -0.2693
 3984SOL    HW315709   3.620   0.683   6.034 -0.1356  1.7914  0.7768
 3984SOL    MW415710   3.582   0.710   5.959 -0.0566 -0.5694 -0.1206
 3985SOL     OW15711   4.759   3.302   0.435 -0.1205  0.6958  0.1040
 3985SOL    HW215712   4.853   3.320   0.426 -0.6076  3.5439  0.0710
 3985SOL    HW315713   4.722   3.380   0.475 -2.5291 -0.3268  0.0705
 3985SOL    MW415714   4.767   3.314   0.439  0.1676 -0.0774 -0.1389
 3986SOL     OW15715   5.710   0.621   6.203  0.2632  0.2712 -0.4673
 3986SOL    HW215716   5.683   0.706   6.168 -0.0294 -0.4981 -2.1793
 3986SOL    HW315717   5.721   0.565   6.126  0.6063 -1.2152  0.6134
 3986SOL    MW415718   5.708   0.625   6.188  0.1302  0.4095 -0.3932
 3987SOL     OW15719   0.908   1.317   4.567 -0.1969  0.1611 -0.0172
 3987SOL    HW215720   0.865   1.267   4.498 -1.2772 -0.0701  0.7929
 3987SOL    HW315721   0.944   1.251   4.626  1.6688  0.3427 -0.8794
 3987SOL    MW415722   0.907   1.302   4.566 -0.0181 -0.0410 -0.4304
 3988SOL     OW15723   1.185   2.717   0.491  0.5260 -0.3862 -0.2521
 3988SOL    HW215724   1.120   2.709   0.561 -0.2742 -0.5503 -1.0112
 3988SOL    HW315725   1.136   2.748   0.415  0.9283 -2.5446 -1.4521
 3988SOL    MW415726   1.170   2.720   0.490 -0.3199  0.2308 -0.1655
 3989SOL     OW15727   5.630   3.959   4.360  0.2259 -0.2932  0.0575
 3989SOL    HW215728   5.693   4.024   4.390 -0.0257  0.0727 -0.1899
 3989SOL    HW315729   5.641   3.885   4.420  1.1727 -0.4004 -0.2425
 3989SOL    MW415730   5.639   3.958   4.372  0.6073  0.1094 -0.2049
 3990SOL     OW15731   0.182   1.858   0.996 -0.1372  0.1397 -0.3547
 3990SOL    HW215732   0.213   1.875   1.085 -0.6504 -1.2784  0.1350
 3990SOL    HW315733   0.258   1.875   0.941 -0.0375  1.8121  0.2459
 3990SOL    MW415734   0.196   1.862   1.001 -0.1159  0.6291  0.8749
 3991SOL     OW15735   5.096   3.128   4.399 -0.2543  0.3452  0.0464
 3991SOL    HW215736   5.068   3.179   4.323  1.8154  3.5467  1.2262
 3991SOL    HW315737   5.150   3.059   4.363 -1.6451  0.0200 -1.5326
 3991SOL    MW415738   5.099   3.126   4.384 -0.3875  0.7347  0.6645
 3992SOL     OW15739   1.744   5.529   1.677 -0.5007 -0.1606  0.0133
 3992SOL    HW215740   1.716   5.617   1.651  0.5496  0.2405  0.1843
 3992SOL    HW315741   1.766   5.486   1.594 -2.7387 -0.9154 -0.2459
 3992SOL    MW415742   1.743   5.535   1.663  0.0278 -0.0286  0.1138
 3993SOL     OW15743   1.262   5.007   4.065  0.2356  0.3100  0.5620
 3993SOL    HW215744   1.315   4.972   4.137 -0.0458 -0.7174  0.2847
 3993SOL    HW315745   1.198   4.938   4.047  0.2267  0.6046 -0.5936
 3993SOL    MW415746   1.261   4.993   4.073 -0.5374  0.0412  0.2672
 3994SOL     OW15747   6.284   5.222   4.688 -0.1072 -0.6087  0.1993
 3994SOL    HW215748   6.362   5.166   4.686 -0.7864 -1.5935  0.7570
 3994SOL    HW315749   6.219   5.173   4.638 -0.9718 -0.7441  1.4181
 3994SOL    MW415750   6.286   5.208   4.681 -0.1403 -0.0076  0.0253
 3995SOL     OW15751   3.767   5.816   1.656 -0.1149 -0.1919  0.5326
 3995SOL    HW215752   3.764   5.870   1.576  0.3429 -3.4358 -1.8653
 3995SOL    HW315753   3.834   5.858   1.710 -0.5445  2.2112 -0.6561
 3995SOL    MW415754   3.776   5.829   1.652  0.4695 -0.3433 -0.5108
 3996SOL     OW15755   3.882   0.054   0.533 -0.0923  0.3467  0.4015
 3996SOL    HW215756   3.799   0.050   0.487 -0.6849 -1.4831  1.5352
 3996SOL    HW315757   3.936  -0.014   0.491 -0.2625 -0.5750  1.6208
 3996SOL    MW415758   3.878   0.044   0.521 -0.1805 -0.5051  0.0043
 3997SOL     OW15759   6.391   2.615   0.304  0.3528  0.2371 -0.0734
 3997SOL    HW215760   6.331   2.679   0.341 -1.2967 -1.1618 -0.1645
 3997SOL    HW315761   6.398   2.638   0.211  0.6198  0.8916  0.1063
 3997SOL    MW415762   6.384   2.626   0.296 -0.3770  0.4967 -0.0928
 3998SOL     OW15763   0.179   1.093   4.638  0.5256  0.3040 -0.4712
 3998SOL    HW215764   0.207   1.002   4.646 -1.1273 -0.1019  1.8082
 3998SOL    HW315765   0.085   1.088   4.620 -0.1359  1.4570  2.1744
 3998SOL    MW415766   0.170   1.080   4.637  0.6188 -0.2504 -0.4701
 3999SOL     OW15767   4.674   6.328   1.232  0.2579 -0.4565 -0.3902
 3999SOL    HW215768   4.664   6.377   1.313  0.4093 -2.5531  0.9528
 3999SOL    HW315769   4.599   6.269   1.230 -0.7646  0.7988 -2.7401
 3999SOL    MW415770   4.663   6.327   1.242  0.6041 -0.1290  0.4538
 4000SOL     OW15771   3.919   3.246   3.781 -0.4611 -0.0514  0.2680
 4000SOL    HW215772   3.837   3.280   3.744 -0.7642 -0.8349  0.1890
 4000SOL    HW315773   3.901   3.237   3.874 -0.3081  0.2206  0.3224
 4000SOL    MW415774   3.905   3.249   3.788  0.0196 -0.5085  0.3821
 4001SOL     OW15775   4.922   3.606   2.104  0.6842  0.2725 -0.2614
 4001SOL    HW215776   5.002   3.587   2.054  0.0929  1.2460 -1.6616
 4001SOL    HW315777   4.925   3.546   2.178  2.1571 -0.4814 -0.8861
 4001SOL    MW415778   4.933   3.596   2.107  0.3135 -0.4344 -0.0684
 4002SOL     OW15779   5.904   1.508   2.014 -0.4179  0.3894  0.2373
 4002SOL    HW215780   5.975   1.567   2.037 -1.4467  2.2512 -1.0040
 4002SOL    HW315781   5.837   1.524   2.080  0.1196 -1.0545  1.1658
 4002SOL    MW415782   5.904   1.518   2.026 -0.0031  0.3226 -0.4241
 4003SOL     OW15783   0.761   1.747   4.716  0.7170 -0.6008  0.5628
 4003SOL    HW215784   0.733   1.664   4.677  1.3547 -0.1273 -0.9927
 4003SOL    HW315785   0.790   1.799   4.641 -0.0180  1.1727  1.4700
 4003SOL    MW415786   0.761   1.743   4.701 -0.1982 -0.4868 -0.4774
 4004SOL     OW15787   3.664   6.261   5.419  0.7340 -0.0217 -0.4996
 4004SOL    HW215788   3.575   6.277   5.387 -0.0685 -2.2494  0.3868
 4004SOL    HW315789   3.668   6.306   5.503 -0.0325 -0.9272  0.0427
 4004SOL    MW415790   3.653   6.269   5.426  0.0538  0.4420  0.3204
 4005SOL     OW15791   3.419   3.254   5.854  0.4444 -0.0675 -0.0862
 4005SOL    HW215792   3.434   3.306   5.933 -1.3081 -2.1975  1.7831
 4005SOL    HW315793   3.498   3.201   5.845  0.3763 -0.3056  0.6717
 4005SOL    MW415794   3.432   3.254   5.863 -0.0227  0.0313  0.1307
 4006SOL     OW15795   0.877   4.700   2.051 -0.3345  0.3763  0.8005
 4006SOL    HW215796   0.945   4.753   2.091 -0.8966  1.2155  0.6871
 4006SOL    HW315797   0.800   4.715   2.106 -0.4540 -0.5076  0.8938
 4006SOL    MW415798   0.875   4.709   2.064  0.2275  0.5644  0.5788
 4007SOL     OW15799   1.055   6.291   2.615  0.3100  0.7051  0.2632
 4007SOL    HW215800   1.028   6.380   2.637 -0.5948  0.3951  0.4633
 4007SOL    HW315801   1.083   6.253   2.698  1.9310  1.1940 -0.0299
 4007SOL    MW415802   1.055   6.298   2.629 -0.3507 -0.4770 -0.0357
 4008SOL     OW15803   2.344   4.236   4.389  0.0833 -0.0941 -1.2530
 4008SOL    HW215804   2.382   4.272   4.309  1.0082  0.8620 -0.4257
 4008SOL    HW315805   2.404   4.264   4.458 -0.6993 -0.8834 -0.2173
 4008SOL    MW415806   2.357   4.244   4.388 -0.1472  0.0872  0.2456
 4009SOL     OW15807   2.349   1.872   5.172 -0.5172  0.3835  0.0217
 4009SOL    HW215808   2.307   1.832   5.096  0.1197 -0.3245  0.0293
 4009SOL    HW315809   2.318   1.820   5.246  1.1317 -0.8239 -0.0756
 4009SOL    MW415810   2.339   1.860   5.172 -0.1823 -0.0691 -0.3537
 4010SOL     OW15811   1.430   0.253   1.154 -0.8159  0.2375 -0.2855
 4010SOL    HW215812   1.423   0.168   1.196  1.5020  1.1449  2.1551
 4010SOL    HW315813   1.468   0.235   1.068 -1.0048 -1.2049 -0.0857
 4010SOL    MW415814   1.434   0.240   1.148 -0.3567  0.4998  0.0034
 4011SOL     OW15815   2.212   1.010   4.258 -0.1811 -0.2454 -0.2283
 4011SOL    HW215816   2.305   1.003   4.237 -0.0669 -2.1257  0.6607
 4011SOL    HW315817   2.168   1.016   4.174  0.7214  0.5539 -0.6606
 4011SOL    MW415818   2.218   1.010   4.244 -0.3504  0.0353  0.3366
 4012SOL     OW15819   3.837   1.266   5.104  0.3503 -0.7714 -0.1449
 4012SOL    HW215820   3.865   1.174   5.109  1.7874 -0.3065  1.3572
 4012SOL    HW315821   3.917   1.316   5.113 -0.5165  0.6433  0.0530
 4012SOL    MW415822   3.851   1.260   5.106 -0.3950  0.3591 -0.3590
 4013SOL     OW15823   5.407   3.465   4.908 -0.4545  0.6847  0.6086
 4013SOL    HW215824   5.499   3.492   4.908 -0.7199  1.6434  0.7769
 4013SOL    HW315825   5.409   3.369   4.910  0.5365  0.6961  0.3766
 4013SOL    MW415826   5.419   3.456   4.908  0.6659 -0.1049 -0.3831
 4014SOL     OW15827   3.110   0.983   1.333 -0.5383 -0.0606  0.0603
 4014SOL    HW215828   3.172   1.053   1.310 -0.2968 -0.6296 -1.0882
 4014SOL    HW315829   3.059   1.019   1.405  1.5670  0.2034  1.5389
 4014SOL    MW415830   3.112   0.997   1.340 -0.0853  0.0185  0.1048
 4015SOL     OW15831   2.965   0.646   3.812  0.1024  0.1852 -0.1252
 4015SOL    HW215832   2.939   0.625   3.902  0.5780  0.2825  0.0364
 4015SOL    HW315833   2.989   0.738   3.814  0.7574  0.0187 -0.2031
 4015SOL    MW415834   2.965   0.655   3.824 -0.4353 -0.5148  0.2641
 4016SOL     OW15835   2.338   4.991   6.323  0.1357 -0.2625 -0.1631
 4016SOL    HW215836   2.306   5.005   6.412  0.4428  1.3581 -0.2731
 4016SOL    HW315837   2.434   4.992   6.331  0.1827 -1.3145 -0.3672
 4016SOL    MW415838   2.347   4.993   6.336  0.1215  0.6576 -0.3721
 4017SOL     OW15839   2.762   0.549   6.135  0.2635 -0.2051 -0.6789
 4017SOL    HW215840   2.752   0.644   6.126  0.4153 -0.1627 -0.4280
 4017SOL    HW315841   2.681   0.513   6.100 -0.6982  0.1184  1.0755
 4017SOL    MW415842   2.750   0.557   6.129 -0.1281 -0.0852  0.0298
 4018SOL     OW15843   2.022   5.951   4.585  0.1914 -0.6537 -0.1711
 4018SOL    HW215844   2.081   5.961   4.510 -1.7398 -0.3614 -1.7468
 4018SOL    HW315845   1.972   6.032   4.587 -1.7490 -1.7839 -0.3777
 4018SOL    MW415846   2.023   5.963   4.575 -0.4202 -0.2971 -0.4714
 4019SOL     OW15847   2.627   0.964   5.120 -0.1088  0.0912  0.3160
 4019SOL    HW215848   2.604   0.947   5.029 -1.3486 -1.1282  0.8208
 4019SOL    HW315849   2.688   1.038   5.117  0.9148 -0.7840 -1.5901
 4019SOL    MW415850   2.632   0.971   5.108  0.1656 -0.3314 -0.4906
 4020SOL     OW15851   6.046   1.709   3.359  0.0445 -0.6331 -0.1644
 4020SOL    HW215852   6.054   1.724   3.453 -1.0692  0.8505 -0.2689
 4020SOL    HW315853   6.133   1.679   3.332  1.1763  1.4246  0.9173
 4020SOL    MW415854   6.059   1.707   3.368  0.2982  0.3984 -0.2610
 4021SOL     OW15855   2.026   0.084   2.325  0.1952  0.4296 -0.3958
 4021SOL    HW215856   2.108   0.070   2.374 -1.1555  0.6080  2.0856
 4021SOL    HW315857   2.051   0.143   2.253  1.9067  2.1241  1.4456
 4021SOL    MW415858   2.040   0.090   2.322  0.9402 -0.6600  0.2566
 4022SOL     OW15859   4.563   5.707   2.027 -0.4089  0.2259  0.5339
 4022SOL    HW215860   4.647   5.752   2.037  0.1140 -0.9536  1.6236
 4022SOL    HW315861   4.511   5.736   2.102 -0.6135  0.1726  0.4139
 4022SOL    MW415862   4.567   5.717   2.038 -0.3759 -0.3312  0.8148
 4023SOL     OW15863   1.645   3.085   1.655  0.9407 -0.5960 -0.0432
 4023SOL    HW215864   1.676   3.040   1.733  0.1748 -0.2500  0.4746
 4023SOL    HW315865   1.564   3.040   1.632 -0.3157  1.0169  1.0015
 4023SOL    MW415866   1.638   3.073   1.662  0.3151  0.3715 -0.2583
 4024SOL     OW15867   2.719   3.978   0.324 -0.1174 -0.3618 -0.1571
 4024SOL    HW215868   2.659   4.036   0.277  1.3519 -0.6033 -2.5336
 4024SOL    HW315869   2.799   4.030   0.336  0.3186 -1.0540  0.0288
 4024SOL    MW415870   2.722   3.992   0.319  0.3789 -0.2767  0.5892
 4025SOL     OW15871   0.185   4.018   0.152  0.2073  0.2934 -0.0505
 4025SOL    HW215872   0.193   4.098   0.100  0.3811  0.9764  0.9825
 4025SOL    HW315873   0.252   4.028   0.220 -0.2851 -0.3751  0.5473
 4025SOL    MW415874   0.195   4.030   0.154 -0.2700  0.2351  0.1942
 4026SOL     OW15875   0.683   2.554   3.298  0.5194 -0.3018  0.2185
 4026SOL    HW215876   0.649   2.478   3.345  1.0227 -1.4614 -1.2121
 4026SOL    HW315877   0.703   2.618   3.367 -1.9696 -0.5713  1.2940
 4026SOL    MW415878   0.681   2.553   3.314  0.3878 -0.5848  0.0965
 4027SOL     OW15879   0.406   5.651   0.087 -0.1486  0.0300  0.1654
 4027SOL    HW215880   0.396   5.628   0.179  1.4832 -0.4191  0.2601
 4027SOL    HW315881   0.316   5.658   0.054 -0.7576 -1.3938  1.3910
 4027SOL    MW415882   0.393   5.649   0.095  0.0442  0.3303 -0.1199
 4028SOL     OW15883   5.517   5.380   4.517  0.2465  0.6940  0.3794
 4028SOL    HW215884   5.599   5.330   4.514 -0.1845 -0.0160 -0.1531
 4028SOL    HW315885   5.498   5.400   4.425 -0.3832  0.4980  0.4624
 4028SOL    MW415886   5.525   5.376   4.505  0.3646  0.3688 -0.5381
 4029SOL     OW15887   1.432   0.406   1.410 -0.6164 -0.0765 -0.4396
 4029SOL    HW215888   1.355   0.462   1.405 -1.3364 -0.7446  1.8445
 4029SOL    HW315889   1.456   0.390   1.319 -0.9951  3.0254 -1.1711
 4029SOL    MW415890   1.425   0.411   1.397  0.7270 -0.1496  0.6449
 4030SOL     OW15891   0.321   2.558   5.739  0.6833  0.2779 -0.1660
 4030SOL    HW215892   0.242   2.524   5.781  2.3592 -1.9275  1.4245
 4030SOL    HW315893   0.356   2.484   5.690  1.8435  1.1680 -0.7448
 4030SOL    MW415894   0.315   2.544   5.738  0.6837  0.3008 -0.6550
 4031SOL     OW15895   5.221   3.850   3.566 -0.1659  0.5005 -0.1360
 4031SOL    HW215896   5.287   3.781   3.554  0.3074  0.9605 -0.2377
 4031SOL    HW315897   5.137   3.807   3.551  0.2561  0.6547 -3.5923
 4031SOL    MW415898   5.219   3.835   3.563 -0.4074  0.0673 -0.1898
 4032SOL     OW15899   3.915   5.256   3.848 -0.0187  0.0550 -0.0184
 4032SOL    HW215900   3.865   5.217   3.777  0.7085 -1.1558  0.1089
 4032SOL    HW315901   3.905   5.194   3.921 -0.2468  0.9653  0.7399
 4032SOL    MW415902   3.907   5.242   3.848  0.3206 -0.5899  0.4943
 4033SOL     OW15903   0.350   5.399   3.796 -0.1171 -0.5002 -0.6658
 4033SOL    HW215904   0.258   5.413   3.817 -0.0532 -0.9026 -0.0938
 4033SOL    HW315905   0.385   5.487   3.780 -0.1536 -0.1637  0.9928
 4033SOL    MW415906   0.343   5.413   3.796  0.4865 -0.8198  0.3771
 4034SOL     OW15907   5.891   3.260   0.651 -0.0982 -0.0701 -0.4485
 4034SOL    HW215908   5.962   3.324   0.644 -0.6044  0.3753 -2.0184
 4034SOL    HW315909   5.858   3.251   0.562  0.4077 -3.1003 -0.4325
 4034SOL    MW415910   5.896   3.268   0.638 -0.8346  0.2962  0.0364
 4035SOL     OW15911   5.724   0.034   5.346  0.3468 -0.0439 -0.2636
 4035SOL    HW215912   5.677  -0.002   5.271 -0.2514 -1.0317  0.5583
 4035SOL    HW315913   5.816   0.017   5.328  0.1627 -0.8083 -0.5059
 4035SOL    MW415914   5.730   0.027   5.334  0.2664 -0.5087  0.6273
 4036SOL     OW15915   3.261   0.583   5.986  0.3645 -0.0027 -0.0628
 4036SOL    HW215916   3.171   0.558   6.008  1.0521 -2.0467  0.6607
 4036SOL    HW315917   3.289   0.519   5.922  1.8173 -0.3872  0.9094
 4036SOL    MW415918   3.253   0.571   5.980 -0.5196 -0.1312  0.5415
 4037SOL     OW15919   6.251   4.598   1.805 -0.4812  0.0772  0.0881
 4037SOL    HW215920   6.243   4.692   1.824  0.7421  0.0031  1.1178
 4037SOL    HW315921   6.196   4.555   1.871  1.1250 -0.0215  1.4353
 4037SOL    MW415922   6.243   4.605   1.816 -0.5858 -0.5083 -0.4527
 4038SOL     OW15923   1.078   5.357   0.832 -0.3918 -0.0798  0.1151
 4038SOL    HW215924   1.113   5.369   0.744 -1.9150 -0.1839 -0.5327
 4038SOL    HW315925   0.989   5.325   0.819 -0.1786 -1.5470  1.7009
 4038SOL    MW415926   1.071   5.354   0.819 -0.3041 -0.4568  0.4003
 4039SOL     OW15927   3.230   3.478   3.165  0.2171 -0.1152 -0.1877
 4039SOL    HW215928   3.212   3.447   3.076 -0.0674  0.3762 -0.3079
 4039SOL    HW315929   3.242   3.573   3.155 -0.9658  0.1260  0.4427
 4039SOL    MW415930   3.229   3.487   3.152 -0.5878 -0.4037 -0.1782
 4040SOL     OW15931   5.736   1.943   0.623  0.1827  0.3989 -0.6066
 4040SOL    HW215932   5.797   1.902   0.685 -1.0622 -1.3591 -0.4747
 4040SOL    HW315933   5.777   1.929   0.538  0.2631 -0.2590 -0.4706
 4040SOL    MW415934   5.750   1.936   0.620  0.2695  0.8253  0.3832
 4041SOL     OW15935   3.213   2.253   1.701 -0.0238 -0.3474 -0.0288
 4041SOL    HW215936   3.216   2.335   1.750  1.0316 -1.4502  1.8650
 4041SOL    HW315937   3.277   2.265   1.631 -0.0812  0.5336  0.0580
 4041SOL    MW415938   3.222   2.266   1.698 -0.3928  0.2839  0.5396
 4042SOL     OW15939   6.323   5.443   2.656 -0.0634 -0.0530  0.2848
 4042SOL    HW215940   6.376   5.452   2.735 -0.9016 -0.2738  0.8773
 4042SOL    HW315941   6.311   5.349   2.645 -1.3753  0.0277  0.8723
 4042SOL    MW415942   6.329   5.432   2.665 -0.2094  0.6158 -0.0243
 4043SOL     OW15943   3.137   0.992   0.849  0.0598 -0.5599 -0.0219
 4043SOL    HW215944   3.142   1.070   0.905  4.0747 -0.1640 -0.5849
 4043SOL    HW315945   3.194   0.929   0.892  0.0493 -1.7089 -1.6037
 4043SOL    MW415946   3.145   0.994   0.862  0.2541  0.7188 -0.4112
 4044SOL     OW15947   2.573   5.079   2.991 -0.2171 -0.2777  0.1337
 4044SOL    HW215948   2.546   5.158   3.036  0.2380  0.4044 -0.7520
 4044SOL    HW315949   2.492   5.042   2.955 -0.5183 -0.5956  1.1254
 4044SOL    MW415950   2.559   5.085   2.992  0.1569 -0.0089 -0.2083
 4045SOL     OW15951   2.716   4.972   0.642 -0.0594 -0.2951  0.2325
 4045SOL    HW215952   2.714   5.033   0.568 -1.5671 -1.0260 -0.3451
 4045SOL    HW315953   2.707   4.886   0.603 -1.4283 -0.6601  1.2931
 4045SOL    MW415954   2.715   4.969   0.627 -0.0524 -0.3187  0.7389
 4046SOL     OW15955   1.539   4.926   4.665  0.0826 -0.5398 -0.1432
 4046SOL    HW215956   1.518   4.948   4.575  1.8143 -0.0690 -0.4655
 4046SOL    HW315957   1.580   4.840   4.660 -1.0758 -1.1389  0.3797
 4046SOL    MW415958   1.542   4.918   4.653  0.4742 -0.8156 -0.0130
 4047SOL     OW15959   4.740   5.030   1.312  0.0169  0.1839 -0.3910
 4047SOL    HW215960   4.760   5.123   1.306  3.0696 -0.4130 -1.8520
 4047SOL    HW315961   4.793   4.999   1.385 -0.7401 -0.4736 -0.1056
 4047SOL    MW415962   4.750   5.038   1.321  0.3233  0.3617 -0.2630
 4048SOL     OW15963   2.444   3.359   0.722 -0.1080  0.2907 -0.4349
 4048SOL    HW215964   2.534   3.379   0.748 -0.0852  1.7410 -1.4825
 4048SOL    HW315965   2.411   3.442   0.686 -0.9995 -0.8737 -2.4539
 4048SOL    MW415966   2.452   3.373   0.720 -0.5567  0.1862 -0.0450
 4049SOL     OW15967   1.718   1.665   6.022 -0.2188 -0.0039 -0.1133
 4049SOL    HW215968   1.812   1.648   6.018 -0.0554  0.8731 -0.3991
 4049SOL    HW315969   1.688   1.652   5.932 -0.0981  1.0724 -0.3284
 4049SOL    MW415970   1.727   1.661   6.009 -0.4456 -0.8257  0.2378
 4050SOL     OW15971   3.046   2.128   5.594  0.5663 -0.3585  0.0386
 4050SOL    HW215972   3.019   2.045   5.635  2.9164 -1.0418  0.3225
 4050SOL    HW315973   3.029   2.194   5.661 -0.8969 -0.6364 -0.0200
 4050SOL    MW415974   3.040   2.126   5.609 -0.2213 -0.4123  0.0457
 4051SOL     OW15975   5.254   6.087   2.866 -0.4935  0.0793  0.0609
 4051SOL    HW215976   5.236   6.180   2.878 -0.1121  0.6116 -2.7472
 4051SOL    HW315977   5.348   6.083   2.851 -0.4635 -0.8196  0.4465
 4051SOL    MW415978   5.264   6.099   2.865  0.3247 -0.2697  0.3369
 4052SOL     OW15979   4.122   3.649   1.601  0.3556 -0.4581  0.0531
 4052SOL    HW215980   4.119   3.658   1.506  1.4534 -0.1384  0.0345
 4052SOL    HW315981   4.064   3.717   1.634 -2.3549 -2.3946 -0.4292
 4052SOL    MW415982   4.114   3.659   1.593 -0.5756  0.3699 -0.5508
 4053SOL     OW15983   0.065   4.331   2.500 -0.5488  0.0011 -0.0686
 4053SOL    HW215984   0.159   4.317   2.512 -0.5303  1.3721  1.8638
 4053SOL    HW315985   0.030   4.245   2.481  0.9137 -0.7903  0.6646
 4053SOL    MW415986   0.073   4.318   2.499  0.0344 -0.0431 -0.0421
 4054SOL     OW15987   5.536   2.224   4.033 -0.0440 -0.3828  0.0031
 4054SOL    HW215988   5.547   2.193   3.943 -1.2979 -1.9965  0.3551
 4054SOL    HW315989   5.615   2.195   4.078  1.4888  2.0317 -0.8954
 4054SOL    MW415990   5.548   2.216   4.027 -0.5440  0.0196 -0.0911
 4055SOL     OW15991   2.805   0.140   1.222 -0.0483  0.4467  0.2097
 4055SOL    HW215992   2.900   0.150   1.217 -0.1263  0.9134 -0.4883
 4055SOL    HW315993   2.779   0.200   1.292  0.2130 -0.0739  0.7714
 4055SOL    MW415994   2.814   0.149   1.231 -0.0069 -0.1105  0.7126
 4056SOL     OW15995   0.568   5.160   0.081  0.1297  0.0537 -0.3871
 4056SOL    HW215996   0.637   5.114   0.129 -0.7098 -0.8767 -0.0240
 4056SOL    HW315997   0.558   5.243   0.127  0.7361  0.0345 -0.2098
 4056SOL    MW415998   0.576   5.165   0.093 -0.3869 -0.6599 -0.0902
 4057SOL     OW15999   5.820   6.324   3.758  0.0906  0.3343  0.4504
 4057SOL    HW216000   5.822   6.349   3.850  0.3812 -0.2144  0.5904
 4057SOL    HW316001   5.769   6.394   3.716 -0.4409  0.3436  1.0954
 4057SOL    MW416002   5.813   6.337   3.764  0.2698  0.3479 -0.2715
 4058SOL     OW16003   1.530   0.216   6.317 -0.3880  0.1172  0.4480
 4058SOL    HW216004   1.453   0.272   6.308 -1.1046 -1.1431 -2.2381
 4058SOL    HW316005   1.601   0.264   6.275 -0.6960 -0.3715 -0.6729
 4058SOL    MW416006   1.529   0.230   6.311  0.1832 -0.3438 -0.3912
 4059SOL     OW16007   0.544   1.076   4.839  0.1193 -0.6747  0.2172
 4059SOL    HW216008   0.598   1.048   4.913  0.7776 -1.3039 -0.4756
 4059SOL    HW316009   0.469   1.016   4.839 -0.4008 -0.0317  0.9659
 4059SOL    MW416010   0.541   1.064   4.848  0.2773 -0.8073  0.0932
 4060SOL     OW16011   2.833   3.600   3.806  0.9225  0.4506  0.7949
 4060SOL    HW216012   2.921   3.571   3.782  1.4035  2.1286  0.3526
 4060SOL    HW316013   2.817   3.676   3.750 -2.1756 -1.7176 -1.5663
 4060SOL    MW416014   2.843   3.606   3.796  0.3274 -0.3312 -0.1932
 4061SOL     OW16015   3.472   4.366   3.309 -0.2184 -0.9913  0.4190
 4061SOL    HW216016   3.518   4.394   3.230  0.3733  0.0911  1.1378
 4061SOL    HW316017   3.382   4.351   3.279 -0.2409  0.3854 -0.2681
 4061SOL    MW416018   3.466   4.367   3.295 -0.3804 -0.0006 -0.4044
 4062SOL     OW16019   5.822   4.989   0.784 -0.2414 -0.2857 -0.1931
 4062SOL    HW216020   5.776   5.011   0.702 -0.9058 -0.8178  0.0318
 4062SOL    HW316021   5.763   5.019   0.853  0.8015  1.1908  0.1257
 4062SOL    MW416022   5.808   4.996   0.782 -0.4273 -0.3378 -0.0605
 4063SOL     OW16023   1.264   5.164   0.951  0.0462 -0.1451  0.4048
 4063SOL    HW216024   1.208   5.091   0.977  0.9989 -0.9740  0.1875
 4063SOL    HW316025   1.203   5.237   0.938 -0.8376 -0.6765  1.3832
 4063SOL    MW416026   1.248   5.164   0.953  0.2782 -0.0834  0.1796
 4064SOL     OW16027   3.727   3.760   0.891 -0.3998  0.4603  0.3804
 4064SOL    HW216028   3.688   3.823   0.830 -0.0522  0.8740  0.5789
 4064SOL    HW316029   3.815   3.794   0.908 -0.7787  0.8413  1.7720
 4064SOL    MW416030   3.733   3.773   0.885  0.3170  0.3785  0.2747
 4065SOL     OW16031   1.355   5.802   1.121 -0.1123  0.7285  0.2426
 4065SOL    HW216032   1.342   5.812   1.216 -3.5791 -1.3998  0.1720
 4065SOL    HW316033   1.381   5.710   1.110 -0.5096  0.7365 -0.8899
 4065SOL    MW416034   1.356   5.791   1.132  0.2033  0.9001 -0.6854
 4066SOL     OW16035   5.705   1.787   4.254  0.2357 -0.0091  0.0798
 4066SOL    HW216036   5.780   1.794   4.313 -0.4939 -0.6167  1.0999
 4066SOL    HW316037   5.630   1.811   4.307 -0.4567 -0.6932 -0.5570
 4066SOL    MW416038   5.705   1.791   4.269 -0.5582  0.0342 -0.0331
 4067SOL     OW16039   4.395   3.008   5.880  0.6389 -0.3557 -0.0034
 4067SOL    HW216040   4.463   2.943   5.896 -0.8217 -1.6976  1.0887
 4067SOL    HW316041   4.358   2.985   5.795 -0.7869 -1.9040  0.9660
 4067SOL    MW416042   4.399   2.996   5.871  0.1855  0.0617  0.9099
 4068SOL     OW16043   5.953   6.318   1.064 -0.3505 -0.1584  0.0921
 4068SOL    HW216044   5.876   6.375   1.064 -0.7515 -0.6880 -0.5865
 4068SOL    HW316045   5.988   6.326   1.152  2.0208  4.3449 -0.9448
 4068SOL    MW416046   5.947   6.327   1.075  0.1491 -0.5380 -0.3305
 4069SOL     OW16047   5.695   4.829   1.937  0.2360  0.3438  0.3599
 4069SOL    HW216048   5.606   4.838   1.969  0.2725  0.6710  0.3694
 4069SOL    HW316049   5.721   4.917   1.911 -0.3308 -0.1370 -2.0099
 4069SOL    MW416050   5.687   4.841   1.938 -0.1107  0.0926 -0.9089
 4070SOL     OW16051   2.430   3.266   5.931  0.0648 -0.2509 -0.2847
 4070SOL    HW216052   2.467   3.347   5.897  0.8705 -0.5581 -0.1419
 4070SOL    HW316053   2.380   3.230   5.858 -0.9331  0.7493 -0.1200
 4070SOL    MW416054   2.428   3.272   5.917 -0.0560 -0.1674 -0.5275
 4071SOL     OW16055   0.533   4.945   2.102  0.0563  0.0682 -0.1786
 4071SOL    HW216056   0.456   4.941   2.046 -0.8806 -0.6969  1.1157
 4071SOL    HW316057   0.552   5.038   2.111  0.7745  0.1920 -2.4429
 4071SOL    MW416058   0.525   4.956   2.096 -0.1902 -0.0070  0.2156
 4072SOL     OW16059   3.801   6.384   0.204  0.0042  0.1913  0.3189
 4072SOL    HW216060   3.715   6.426   0.214 -0.4614 -0.1949 -1.5113
 4072SOL    HW316061   3.856   6.452   0.163  0.3829  0.2289  0.8879
 4072SOL    MW416062   3.797   6.399   0.200 -0.2110 -0.2459 -0.2064
 4073SOL     OW16063   1.211   4.138   1.659  0.0490  0.0665 -0.5837
 4073SOL    HW216064   1.276   4.121   1.728  2.2921 -0.7817 -2.7334
 4073SOL    HW316065   1.156   4.060   1.658 -1.5322  1.0491  1.6700
 4073SOL    MW416066   1.212   4.125   1.668  0.0876 -0.4797 -0.9039
 4074SOL     OW16067   6.299   0.842   4.332 -1.0556  0.0884  0.1426
 4074SOL    HW216068   6.347   0.759   4.337  0.2879  0.9132  2.3169
 4074SOL    HW316069   6.213   0.822   4.371 -0.3291 -0.0522  1.7366
 4074SOL    MW416070   6.294   0.829   4.338  0.3207 -0.4443 -0.0908
 4075SOL     OW16071   3.605   2.708   3.163 -0.2312 -0.3203  0.2855
 4075SOL    HW216072   3.526   2.757   3.185  0.5778  1.2880 -0.2433
 4075SOL    HW316073   3.661   2.717   3.240 -0.0243 -0.2858  0.1325
 4075SOL    MW416074   3.602   2.716   3.176 -0.2248  0.1670 -0.4441
 4076SOL     OW16075   3.450   0.659   5.583 -0.4966  0.0321  1.0993
 4076SOL    HW216076   3.433   0.611   5.502  0.0802  2.2189 -0.4099
 4076SOL    HW316077   3.486   0.593   5.643 -1.0781 -1.6828 -0.3511
 4076SOL    MW416078   3.453   0.644   5.580 -0.0494  0.4238 -0.1568
 4077SOL     OW16079   0.496   2.467   0.864 -0.0590 -0.0335 -0.2035
 4077SOL    HW216080   0.521   2.487   0.954 -0.1007 -3.4787  0.7134
 4077SOL    HW316081   0.403   2.447   0.868 -0.4518  1.4141 -1.3839
 4077SOL    MW416082   0.487   2.467   0.876 -0.0248  0.3851  0.3570
 4078SOL     OW16083   1.934   5.238   3.293  0.0754 -0.2877  0.3732
 4078SOL    HW216084   1.969   5.151   3.312  1.3891  0.1318 -0.0133
 4078SOL    HW316085   1.912   5.275   3.379  0.8154 -0.4817  0.6488
 4078SOL    MW416086   1.936   5.232   3.307 -0.0579 -0.3407  0.0865
 4079SOL     OW16087   2.147   0.134   1.520 -0.1518 -0.1436 -0.2797
 4079SOL    HW216088   2.104   0.183   1.450 -0.4053 -1.1887 -0.8734
 4079SOL    HW316089   2.233   0.113   1.486 -0.1425 -0.3434 -0.1372
 4079SOL    MW416090   2.152   0.138   1.506 -1.1623  0.1757 -0.0206
 4080SOL     OW16091   4.506   2.386   6.000  0.0897 -0.5549  0.5798
 4080SOL    HW216092   4.524   2.296   6.027 -1.6693 -0.9756  0.5063
 4080SOL    HW316093   4.453   2.422   6.072  1.0952  0.5654  0.7873
 4080SOL    MW416094   4.501   2.379   6.013 -0.5756  0.3926  0.2009
 4081SOL     OW16095   5.302   0.887   4.918  0.5442 -0.0613  0.5079
 4081SOL    HW216096   5.247   0.814   4.891 -0.4360  0.0879  2.0385
 4081SOL    HW316097   5.286   0.955   4.852 -0.4491 -0.3226  0.4758
 4081SOL    MW416098   5.293   0.886   4.906 -0.4670  0.2339  0.0239
 4082SOL     OW16099   2.310   3.975   1.879  0.0715 -0.1906 -0.4888
 4082SOL    HW216100   2.302   3.905   1.814 -0.9739  0.4922 -1.1145
 4082SOL    HW316101   2.377   3.943   1.940  0.2457 -1.3437 -1.2531
 4082SOL    MW416102   2.318   3.961   1.879 -0.3593  0.4599 -0.5170
 4083SOL     OW16103   4.514   3.654   0.726  0.2069 -0.0123  0.1556
 4083SOL    HW216104   4.461   3.575   0.738  1.7405 -0.8200  2.5646
 4083SOL    HW316105   4.463   3.724   0.766  0.3312 -0.5424  1.3084
 4083SOL    MW416106   4.500   3.653   0.733  0.1387 -0.0271  0.1590
 4084SOL     OW16107   3.498   5.832   4.152  0.4689  0.1775 -0.0695
 4084SOL    HW216108   3.420   5.852   4.204  1.8944  0.4012  2.0801
 4084SOL    HW316109   3.547   5.769   4.205  0.7916 -1.6018 -2.3263
 4084SOL    MW416110   3.494   5.826   4.166 -0.1579 -0.3242 -0.0982
 4085SOL     OW16111   3.164   5.232   4.051 -0.4136 -0.2452 -0.3782
 4085SOL    HW216112   3.220   5.293   4.003  0.2649  1.1946  2.1026
 4085SOL    HW316113   3.104   5.288   4.100 -0.3188 -1.5901  1.3583
 4085SOL    MW416114   3.163   5.248   4.051 -0.1389 -0.5482 -0.7779
 4086SOL     OW16115   4.914   6.157   0.013 -0.2261  0.0556 -0.0665
 4086SOL    HW216116   4.840   6.123  -0.038  0.2001 -0.8401 -0.0963
 4086SOL    HW316117   4.906   6.114   0.098  0.0748  0.2110  0.0401
 4086SOL    MW416118   4.903   6.147   0.018 -0.2844 -0.2926 -0.3675
 4087SOL     OW16119   4.660   4.403   6.313 -0.6478 -0.7339  0.0879
 4087SOL    HW216120   4.578   4.452   6.322 -0.8265 -1.2658  1.8598
 4087SOL    HW316121   4.658   4.368   6.225 -2.4321 -0.8927  0.1655
 4087SOL    MW416122   4.649   4.405   6.303 -0.3398 -0.0495  0.2780
 4088SOL     OW16123   0.192   4.752   4.290  0.1117 -0.1536  0.3420
 4088SOL    HW216124   0.136   4.707   4.226 -0.7614 -1.9700  2.2499
 4088SOL    HW316125   0.251   4.805   4.236 -2.4073  0.6858 -1.8309
 4088SOL    MW416126   0.193   4.753   4.274  0.4173  0.3346  0.4326
 4089SOL     OW16127   3.468   0.904   4.308 -0.4103 -0.1458 -0.0481
 4089SOL    HW216128   3.454   0.978   4.250 -0.7479  0.3676  0.6689
 4089SOL    HW316129   3.518   0.841   4.256  2.2316  1.6580  0.1646
 4089SOL    MW416130   3.473   0.905   4.294  0.1225 -0.1371  0.1730
 4090SOL     OW16131   3.195   2.764   5.077 -0.0319 -0.4827  0.1046
 4090SOL    HW216132   3.255   2.720   5.137  0.4155 -0.0477 -0.0121
 4090SOL    HW316133   3.249   2.830   5.033 -0.9667  1.1532  1.2918
 4090SOL    MW416134   3.210   2.767   5.079 -0.2958 -0.3716 -0.1935
 4091SOL     OW16135   3.590   2.972   1.581 -0.3918  0.7172  0.3456
 4091SOL    HW216136   3.664   3.020   1.620  0.7639  0.5502 -1.5082
 4091SOL    HW316137   3.575   3.016   1.498 -2.0644  0.4038  0.4634
 4091SOL    MW416138   3.598   2.984   1.575 -0.1109  0.6704 -0.1554
 4092SOL     OW16139   3.454   2.606   1.707  0.9379 -0.1945 -0.1932
 4092SOL    HW216140   3.549   2.605   1.715  0.8282  1.7043  2.5564
 4092SOL    HW316141   3.424   2.672   1.769 -2.2280 -0.8765 -0.7683
 4092SOL    MW416142   3.462   2.614   1.716  0.4712 -0.2681  0.5215
 4093SOL     OW16143   4.163   4.578   3.845 -0.0490 -0.4336 -0.1290
 4093SOL    HW216144   4.188   4.618   3.928 -1.4165 -0.5128  0.3492
 4093SOL    HW316145   4.146   4.486   3.867  0.2302 -0.6097 -0.6317
 4093SOL    MW416146   4.164   4.571   3.859 -0.1286  0.1228 -0.2004
 4094SOL     OW16147   4.341   2.265   4.225 -0.2456  0.2258  0.3344
 4094SOL    HW216148   4.283   2.274   4.300  0.3056 -1.6488  1.0534
 4094SOL    HW316149   4.427   2.292   4.257  1.0778 -4.8987  2.0428
 4094SOL    MW416150   4.345   2.269   4.239 -0.1719 -0.4696  0.4322
 4095SOL     OW16151   5.219   4.948   6.024  0.2259  0.6940 -0.0368
 4095SOL    HW216152   5.176   4.951   5.938 -3.2596 -0.9106  1.4902
 4095SOL    HW316153   5.186   5.026   6.069  1.2810  1.0020  0.2213
 4095SOL    MW416154   5.209   4.959   6.018 -0.3579  0.3202 -0.3249
 4096SOL     OW16155   6.105   2.047   5.807 -0.1514  0.0324  0.4559
 4096SOL    HW216156   6.023   2.053   5.757  0.0643  0.2405  0.1242
 4096SOL    HW316157   6.156   2.122   5.778  0.4710 -0.5247  0.0973
 4096SOL    MW416158   6.101   2.058   5.796 -0.2114  0.2215  0.0775
 4097SOL     OW16159   0.058   6.184   2.215 -0.4297  0.5613  0.2761
 4097SOL    HW216160   0.118   6.171   2.288  1.0839 -0.0741 -1.0163
 4097SOL    HW316161   0.003   6.106   2.216  0.6236 -0.2163 -0.1645
 4097SOL    MW416162   0.059   6.172   2.225  0.0569  0.0825  0.0540
 4098SOL     OW16163   1.703   5.197   4.002 -0.0047 -0.0795 -0.3064
 4098SOL    HW216164   1.648   5.251   4.059 -0.2180 -1.0688  0.4768
 4098SOL    HW316165   1.792   5.230   4.016  0.1123 -0.9945  1.5135
 4098SOL    MW416166   1.707   5.208   4.012  0.0477  0.8531  0.4133
 4099SOL     OW16167   5.548   3.106   0.007 -0.3077  0.1836 -0.0051
 4099SOL    HW216168   5.572   3.013  -0.000 -0.2811  0.2141 -0.3442
 4099SOL    HW316169   5.629   3.149   0.033 -0.4396  0.0503  0.6618
 4099SOL    MW416170   5.562   3.099   0.010  0.3464 -0.2101  0.1695
 4100SOL     OW16171   2.655   3.410   5.555  0.3941  0.3510 -0.0543
 4100SOL    HW216172   2.594   3.462   5.503  0.8656  0.1645 -0.8130
 4100SOL    HW316173   2.692   3.348   5.493  1.4240  0.5174  0.3688
 4100SOL    MW416174   2.652   3.409   5.540 -0.0733  0.1442  0.5079
 4101SOL     OW16175   4.583   5.248   4.995 -0.0745 -0.6596  0.5488
 4101SOL    HW216176   4.649   5.273   4.930 -1.1905  0.0515 -0.3343
 4101SOL    HW316177   4.626   5.180   5.047  0.4468 -2.1498 -1.6943
 4101SOL    MW416178   4.598   5.242   4.994 -0.6061  0.3566 -0.7452
 4102SOL     OW16179   0.704   3.484   4.097  0.3502 -0.1656 -0.0667
 4102SOL    HW216180   0.783   3.430   4.099 -0.1497 -0.9300 -0.2297
 4102SOL    HW316181   0.644   3.440   4.158  0.6073  1.3225  1.3100
 4102SOL    MW416182   0.707   3.471   4.105  0.4438  0.3646  0.0365
 4103SOL     OW16183   3.033   6.282   3.242 -0.1045 -0.2627 -0.0482
 4103SOL    HW216184   3.002   6.345   3.307 -3.6032 -0.5922 -1.1846
 4103SOL    HW316185   2.994   6.199   3.269  0.4490 -0.9134 -1.1989
 4103SOL    MW416186   3.024   6.279   3.254 -0.0846 -0.1172  0.2276
 4104SOL     OW16187   1.040   3.430   0.806 -0.1708 -0.0080 -0.1771
 4104SOL    HW216188   1.103   3.411   0.875 -0.4936 -1.4738 -0.2596
 4104SOL    HW316189   0.976   3.489   0.848  0.2605  0.0375  0.4261
 4104SOL    MW416190   1.040   3.435   0.820 -0.0996  0.0750  0.4067
 4105SOL     OW16191   0.221   0.858   6.299 -0.1677  0.1844 -0.9653
 4105SOL    HW216192   0.178   0.928   6.349 -0.1018 -1.8845  2.2527
 4105SOL    HW316193   0.154   0.826   6.240 -1.8194 -0.2203  1.0194
 4105SOL    MW416194   0.207   0.863   6.298 -0.5688 -0.5810  0.1692
 4106SOL     OW16195   0.194   5.872   5.436  0.6981  0.3120 -0.7080
 4106SOL    HW216196   0.190   5.958   5.394  1.3090  1.5951  1.6878
 4106SOL    HW316197   0.103   5.854   5.462  1.0556  2.3200  2.4925
 4106SOL    MW416198   0.181   5.881   5.434  0.0227  0.4683 -0.0862
 4107SOL     OW16199   5.070   5.445   4.121  0.6845 -0.0179  0.3659
 4107SOL    HW216200   5.092   5.484   4.037  1.5046  0.6785  0.8914
 4107SOL    HW316201   5.132   5.373   4.132 -0.9137 -1.6529 -0.6663
 4107SOL    MW416202   5.081   5.440   4.111  0.5652 -0.5134 -0.1067
 4108SOL     OW16203   5.733   2.621   5.163  0.1352  0.6026  0.3976
 4108SOL    HW216204   5.677   2.549   5.135  0.5150  0.7293 -0.7614
 4108SOL    HW316205   5.678   2.699   5.156 -0.8318  0.2964  3.3287
 4108SOL    MW416206   5.719   2.622   5.158  0.6676 -0.1910 -0.2774
 4109SOL     OW16207   2.582   2.276   0.268  0.0720  0.5992  0.1502
 4109SOL    HW216208   2.508   2.228   0.305 -1.5775  1.0612 -2.3175
 4109SOL    HW316209   2.643   2.208   0.239 -0.9790  0.0613 -0.8537
 4109SOL    MW416210   2.580   2.261   0.269 -0.1302  0.0451  0.1072
 4110SOL     OW16211   0.226   1.686   0.025  0.3332  0.6220 -0.4230
 4110SOL    HW216212   0.318   1.704   0.005  0.9584 -1.7138  0.0408
 4110SOL    HW316213   0.180   1.701  -0.058  1.3138  0.7682 -0.9546
 4110SOL    MW416214   0.232   1.690   0.011  0.1797 -0.1565 -0.3411
 4111SOL     OW16215   3.469   5.109   5.990  0.0376  0.2147 -0.2316
 4111SOL    HW216216   3.517   5.053   5.928  1.5566  0.3384  0.7702
 4111SOL    HW316217   3.532   5.177   6.014 -0.0232 -0.5329  2.3664
 4111SOL    MW416218   3.484   5.110   5.985 -0.3975  0.3004  0.8063
 4112SOL     OW16219   5.034   3.164   1.904 -0.3773  0.4523  0.5665
 4112SOL    HW216220   5.013   3.079   1.866 -1.5786  0.4176  1.2389
 4112SOL    HW316221   5.067   3.216   1.831 -2.3016  0.2935 -0.4634
 4112SOL    MW416222   5.036   3.160   1.889 -0.6242  0.2450  0.1219
 4113SOL     OW16223   2.983   5.006   2.059  0.2398 -0.3106  0.0216
 4113SOL    HW216224   2.968   4.933   1.998  1.9082 -0.4772 -0.2517
 4113SOL    HW316225   2.973   5.084   2.005  0.1882 -0.4025 -0.1029
 4113SOL    MW416226   2.980   5.007   2.044 -0.0753 -0.0902  0.5015
 4114SOL     OW16227   2.821   5.413   5.063  0.0887 -0.2913  0.8041
 4114SOL    HW216228   2.892   5.447   5.009 -0.4794 -1.1433 -0.5321
 4114SOL    HW316229   2.844   5.321   5.078 -0.9680 -0.7303 -0.1160
 4114SOL    MW416230   2.833   5.406   5.058  0.3991  0.6848  0.0552
 4115SOL     OW16231   0.721   2.622   2.596  0.1364  0.0516 -0.1813
 4115SOL    HW216232   0.770   2.676   2.534 -1.3080  1.2203 -0.3763
 4115SOL    HW316233   0.788   2.577   2.647  1.3752  0.0924 -1.6858
 4115SOL    MW416234   0.736   2.623   2.594  0.8856 -0.1799 -0.6518
 4116SOL     OW16235   5.085   2.211   0.580 -0.9668  0.7014 -0.2142
 4116SOL    HW216236   4.999   2.232   0.543 -1.4321 -2.3324 -1.0774
 4116SOL    HW316237   5.068   2.141   0.643  0.8515  0.1994 -0.2225
 4116SOL    MW416238   5.071   2.205   0.584  0.1536 -0.4274 -0.0381
 4117SOL     OW16239   3.863   1.537   4.435 -0.4600 -0.5154  0.3642
 4117SOL    HW216240   3.837   1.499   4.351  0.5399 -2.3678  0.8317
 4117SOL    HW316241   3.953   1.569   4.420 -0.1754 -1.1050  0.7891
 4117SOL    MW416242   3.872   1.536   4.422 -0.3005 -0.1593 -0.2052
 4118SOL     OW16243   2.765   2.390   0.458  0.3456 -0.0582 -0.0563
 4118SOL    HW216244   2.720   2.433   0.531  1.3942  1.5772 -0.3391
 4118SOL    HW316245   2.696   2.369   0.396 -0.3223  0.2220  0.5791
 4118SOL    MW416246   2.750   2.393   0.460 -0.1778  0.6098 -0.2581
 4119SOL     OW16247   2.800   0.670   0.489  0.3403  0.2820 -0.7256
 4119SOL    HW216248   2.845   0.640   0.568 -1.3857  3.3465  1.6679
 4119SOL    HW316249   2.720   0.617   0.485 -0.0242  0.7283  0.2229
 4119SOL    MW416250   2.795   0.659   0.499 -0.3331 -0.5568 -0.1683
 4120SOL     OW16251   0.681   5.754   1.574 -0.2731  0.1116  1.0141
 4120SOL    HW216252   0.664   5.661   1.562 -1.3095  0.3174  0.7582
 4120SOL    HW316253   0.681   5.767   1.669  3.0400 -0.6636  1.2348
 4120SOL    MW416254   0.679   5.744   1.585  0.1049 -0.2658 -0.0782
 4121SOL     OW16255   1.632   2.752   0.254  0.2520  0.1269 -0.3150
 4121SOL    HW216256   1.581   2.681   0.216 -2.3234  1.4522  0.4232
 4121SOL    HW316257   1.631   2.737   0.348 -1.7495  1.8691  0.0324
 4121SOL    MW416258   1.625   2.741   0.261 -0.2948 -0.6174  0.1367
 4122SOL     OW16259   5.125   4.116   0.127 -0.0929 -0.6530 -0.2158
 4122SOL    HW216260   5.133   4.037   0.073  0.1050 -1.3361  0.7750
 4122SOL    HW316261   5.215   4.146   0.138 -0.1192 -0.6058 -0.1299
 4122SOL    MW416262   5.138   4.109   0.121  1.0056  0.2933 -0.9401
 4123SOL     OW16263   2.983   1.563   5.876 -0.2596 -0.4001  0.0002
 4123SOL    HW216264   2.950   1.486   5.921  0.1690 -0.0059  1.0193
 4123SOL    HW316265   3.067   1.535   5.839 -0.8223 -0.8540 -0.9566
 4123SOL    MW416266   2.990   1.549   5.877  0.4543  0.2009  0.3159
 4124SOL     OW16267   0.748   0.459   1.142 -0.0422  0.0160  0.0071
 4124SOL    HW216268   0.734   0.385   1.083 -2.4259  0.0156  0.4636
 4124SOL    HW316269   0.786   0.527   1.087 -2.8660  0.2761 -1.8262
 4124SOL    MW416270   0.751   0.458   1.127 -0.2598  0.1260 -0.6495
 4125SOL     OW16271   0.092   2.842   1.913 -0.7524 -0.0946 -0.1760
 4125SOL    HW216272   0.180   2.837   1.950 -1.0840  1.0266  0.8122
 4125SOL    HW316273   0.103   2.889   1.830 -0.3258 -0.6750 -0.4600
 4125SOL    MW416274   0.105   2.847   1.907 -0.0444  0.2855  0.1912
 4126SOL     OW16275   2.028   2.862   1.899  0.2595 -0.1830 -0.2915
 4126SOL    HW216276   2.106   2.822   1.939  0.0360 -1.3064 -0.9174
 4126SOL    HW316277   2.033   2.836   1.807 -0.5338  0.2489 -0.4634
 4126SOL    MW416278   2.039   2.853   1.892  0.1267  0.0558  0.6503
 4127SOL     OW16279   2.309   3.275   5.459  1.1168  0.6308  0.6667
 4127SOL    HW216280   2.234   3.231   5.418  0.2278  3.2383 -0.7384
 4127SOL    HW316281   2.383   3.216   5.444 -0.1765 -0.8750 -0.1069
 4127SOL    MW416282   2.309   3.262   5.451  0.1971  0.3441 -0.2213
 4128SOL     OW16283   0.622   0.791   1.576 -0.7526 -0.2257 -0.4399
 4128SOL    HW216284   0.703   0.829   1.610 -0.9670  0.0325 -0.2058
 4128SOL    HW316285   0.553   0.828   1.632 -0.9918 -0.7516 -0.3861
 4128SOL    MW416286   0.624   0.801   1.588 -0.2839  0.2561  0.1977
 4129SOL     OW16287   4.552   5.857   4.579  0.5924 -0.0786  0.6303
 4129SOL    HW216288   4.646   5.871   4.565  0.4479 -0.4297 -0.7719
 4129SOL    HW316289   4.516   5.946   4.585  0.4937  0.2417 -2.7246
 4129SOL    MW416290   4.560   5.871   4.578  0.0788  0.2246  0.1620
 4130SOL     OW16291   3.984   1.981   3.042 -0.5443  0.4252  0.2695
 4130SOL    HW216292   3.931   2.060   3.031  0.1653  0.8499 -0.2485
 4130SOL    HW316293   4.058   1.995   2.983 -1.3878 -1.5120 -1.3505
 4130SOL    MW416294   3.987   1.993   3.033  0.4856 -0.1087  0.1637
 4131SOL     OW16295   0.187   3.341   4.643  0.2250  0.2083 -0.2414
 4131SOL    HW216296   0.241   3.413   4.676  1.4817 -0.0330 -1.6511
 4131SOL    HW316297   0.174   3.285   4.719  1.0982  0.8172  0.3777
 4131SOL    MW416298   0.193   3.343   4.657  0.0785  0.4026 -0.5953
 4132SOL     OW16299   1.006   1.818   5.561  0.4490 -0.4880  0.1923
 4132SOL    HW216300   0.915   1.846   5.549  0.2828 -0.9199  0.4527
 4132SOL    HW316301   1.023   1.831   5.655  1.0023  0.6166 -0.0332
 4132SOL    MW416302   0.996   1.824   5.572  0.6373 -0.2523  0.2925
 4133SOL     OW16303   5.710   6.026   4.478  0.8336 -0.7952  0.2193
 4133SOL    HW216304   5.697   5.969   4.554 -0.3989 -1.9123 -0.7743
 4133SOL    HW316305   5.672   6.110   4.504  1.3250 -0.8543  1.1749
 4133SOL    MW416306   5.703   6.029   4.492 -0.0065 -0.3655  0.0958
 4134SOL     OW16307   4.928   1.394   1.427 -0.2768  0.4270 -0.1546
 4134SOL    HW216308   4.881   1.380   1.509  0.2030  1.0435  0.2268
 4134SOL    HW316309   4.918   1.487   1.408  3.0239  1.2393  1.3599
 4134SOL    MW416310   4.920   1.404   1.435 -0.7181 -0.1112  0.5755
 4135SOL     OW16311   1.897   4.076   3.438  0.1056  0.2304  0.2328
 4135SOL    HW216312   1.916   4.169   3.449  2.6945  0.1768 -2.6438
 4135SOL    HW316313   1.810   4.075   3.398 -0.0557  1.3866  0.5043
 4135SOL    MW416314   1.888   4.088   3.434 -0.1357 -0.5421  0.0488
 4136SOL     OW16315   5.126   2.655   1.028 -0.4175 -0.4800 -0.2334
 4136SOL    HW216316   5.215   2.650   1.061 -1.0293 -0.7919  1.5076
 4136SOL    HW316317   5.086   2.727   1.078 -1.6073 -1.4590  0.2644
 4136SOL    MW416318   5.132   2.664   1.039 -0.3997 -0.1590  0.0238
 4137SOL     OW16319   2.686   4.678   4.660  0.2105  0.3794 -0.4872
 4137SOL    HW216320   2.618   4.613   4.681  0.3123  0.2472 -0.5684
 4137SOL    HW316321   2.730   4.642   4.583  0.6511  0.2591 -0.1806
 4137SOL    MW416322   2.683   4.665   4.653  0.4440  0.0851 -0.2065
 4138SOL     OW16323   4.537   3.245   5.802 -0.0358  0.0665 -0.1729
 4138SOL    HW216324   4.493   3.162   5.821  0.4643 -0.2938 -0.5554
 4138SOL    HW316325   4.549   3.245   5.707  0.6013  0.2502 -0.0958
 4138SOL    MW416326   4.533   3.234   5.792 -0.3570  0.1162  0.4649
 4139SOL     OW16327   1.815   3.180   4.513  0.2645  0.2218  0.1921
 4139SOL    HW216328   1.861   3.097   4.512  1.3995  0.8220 -1.0358
 4139SOL    HW316329   1.808   3.205   4.420 -0.8626  1.0535  0.4797
 4139SOL    MW416330   1.820   3.173   4.500  0.0953  0.1372 -0.2683
 4140SOL     OW16331   1.204   0.629   1.046 -0.0595 -0.0397  0.4276
 4140SOL    HW216332   1.215   0.596   1.136 -2.1731 -2.3467 -0.0306
 4140SOL    HW316333   1.109   0.638   1.036  0.1028 -0.1971 -1.6918
 4140SOL    MW416334   1.193   0.626   1.057 -0.0210 -0.3146 -0.0782
 4141SOL     OW16335   1.146   0.923   1.155 -0.1635  0.3846  0.3174
 4141SOL    HW216336   1.130   0.872   1.235 -0.7463 -2.3206 -1.4088
 4141SOL    HW316337   1.192   0.863   1.097 -0.7101  1.9127 -1.8113
 4141SOL    MW416338   1.150   0.909   1.158  0.0601  0.6434  0.0199
 4142SOL     OW16339   3.475   5.234   4.477 -0.6786  0.2014  0.0534
 4142SOL    HW216340   3.402   5.216   4.418  0.8442 -0.2762 -1.7726
 4142SOL    HW316341   3.451   5.317   4.518 -3.2159 -0.9544  1.1671
 4142SOL    MW416342   3.462   5.243   4.474 -0.2667 -0.5061  0.5131
 4143SOL     OW16343   3.151   4.568   5.372  0.2105  0.1588  0.2351
 4143SOL    HW216344   3.172   4.476   5.356 -1.2300  0.1944 -2.5035
 4143SOL    HW316345   3.086   4.566   5.442  0.9011 -0.8020  0.8727
 4143SOL    MW416346   3.145   4.556   5.379  0.6542  0.1547  0.3753
 4144SOL     OW16347   5.552   2.829   4.868  0.1383 -0.0224  0.3065
 4144SOL    HW216348   5.568   2.863   4.956 -0.9506  1.6782 -0.1077
 4144SOL    HW316349   5.489   2.890   4.830 -0.3490 -1.4130 -1.2295
 4144SOL    MW416350   5.546   2.842   4.875  0.3710 -0.2229  0.4770
 4145SOL     OW16351   2.593   1.603   0.818  0.7481 -0.0709 -0.1541
 4145SOL    HW216352   2.675   1.611   0.867  1.3608 -2.0578 -0.7594
 4145SOL    HW316353   2.615   1.635   0.730  1.2213 -1.6434 -0.6292
 4145SOL    MW416354   2.607   1.609   0.813  0.0024 -0.2702  0.8207
 4146SOL     OW16355   4.064   1.828   0.750 -0.1777 -0.0184  0.0713
 4146SOL    HW216356   4.024   1.826   0.837 -0.6101  2.5210  0.0064
 4146SOL    HW316357   4.000   1.784   0.693 -1.5965  1.4230  0.4753
 4146SOL    MW416358   4.050   1.822   0.754  0.1959 -0.0040  0.1168
 4147SOL     OW16359   0.374   3.811   1.535  0.2491  0.0366 -0.8383
 4147SOL    HW216360   0.308   3.870   1.572 -0.6052 -0.4034 -1.6320
 4147SOL    HW316361   0.456   3.837   1.578 -0.1931  1.4771 -0.8205
 4147SOL    MW416362   0.376   3.823   1.546  0.1713  0.0746 -0.0848
 4148SOL     OW16363   2.954   5.699   4.596  0.1076  0.1217 -0.0387
 4148SOL    HW216364   2.983   5.780   4.553  1.0917  0.6195  1.4933
 4148SOL    HW316365   2.913   5.729   4.677 -0.0187 -0.8979  0.2835
 4148SOL    MW416366   2.952   5.714   4.601 -0.6348  0.1066 -0.1326
 4149SOL     OW16367   4.223   0.938   4.061  0.3615 -0.3238 -0.0294
 4149SOL    HW216368   4.235   1.022   4.016 -2.3644 -0.8331 -1.9399
 4149SOL    HW316369   4.294   0.883   4.027  0.5494  0.4066 -0.8537
 4149SOL    MW416370   4.234   0.941   4.051 -0.0331 -0.1582 -0.4459
 4150SOL     OW16371   5.638   0.875   5.421 -0.3866  0.1857  0.3504
 4150SOL    HW216372   5.659   0.908   5.508 -0.7432 -0.5044  0.7025
 4150SOL    HW316373   5.543   0.882   5.414 -0.3228  0.6481 -0.1573
 4150SOL    MW416374   5.628   0.880   5.431 -0.2481 -0.3036  0.0798
 4151SOL     OW16375   2.095   4.932   2.794 -0.6801  0.2289 -0.4195
 4151SOL    HW216376   2.078   5.026   2.787  0.6309  0.3675 -2.7703
 4151SOL    HW316377   2.012   4.892   2.766 -0.7729  0.7310 -0.9080
 4151SOL    MW416378   2.082   4.939   2.789 -0.2902  0.1583  0.0420
 4152SOL     OW16379   5.255   4.827   1.392  0.1006  0.6254  0.2637
 4152SOL    HW216380   5.317   4.838   1.320 -0.0147  0.6835  0.1726
 4152SOL    HW316381   5.179   4.786   1.352 -0.0595  0.8793  0.3011
 4152SOL    MW416382   5.253   4.823   1.378 -0.3912  0.0458  0.1725
 4153SOL     OW16383   1.659   3.781   1.993  0.2523 -0.1227  0.2682
 4153SOL    HW216384   1.664   3.837   2.071 -0.9688 -0.6111  0.7139
 4153SOL    HW316385   1.597   3.712   2.017 -2.1510  1.0925 -1.9603
 4153SOL    MW416386   1.652   3.779   2.007 -0.4656 -0.1661 -0.5856
 4154SOL     OW16387   2.237   0.607   0.647  0.3215 -0.0921  0.2733
 4154SOL    HW216388   2.249   0.554   0.569  0.4949 -0.1326  0.3273
 4154SOL    HW316389   2.143   0.606   0.663  0.2712  0.0330 -0.0163
 4154SOL    MW416390   2.226   0.600   0.639 -0.4932  0.0582  0.7054
 4155SOL     OW16391   4.000   0.185   0.756 -0.0045  0.3491 -0.1284
 4155SOL    HW216392   3.963   0.172   0.669 -0.6772 -2.0086  0.4258
 4155SOL    HW316393   4.071   0.248   0.744  0.0267 -0.0526 -2.4098
 4155SOL    MW416394   4.005   0.191   0.743  1.1729  0.7866  0.2578
 4156SOL     OW16395   1.462   1.049   0.532 -0.4451 -0.4128 -0.3152
 4156SOL    HW216396   1.493   0.959   0.545 -0.3696 -0.3060  0.2495
 4156SOL    HW316397   1.526   1.088   0.472 -0.3331 -0.6519 -0.3540
 4156SOL    MW416398   1.474   1.042   0.526  0.5424 -0.7471  0.3200
 4157SOL     OW16399   4.608   3.877   6.224 -0.3816 -0.5810 -0.0826
 4157SOL    HW216400   4.578   3.787   6.216  2.8449 -1.6955 -0.9429
 4157SOL    HW316401   4.693   3.879   6.179  1.4436  1.9871  3.0490
 4157SOL    MW416402   4.615   3.866   6.217  0.0963  0.4455 -1.0054
 4158SOL     OW16403   0.593   6.421   0.085 -0.8338 -0.5382 -0.3085
 4158SOL    HW216404   0.667   6.360   0.084 -1.0757 -0.9301  1.7685
 4158SOL    HW316405   0.555   6.412  -0.002  0.3307 -1.8576 -0.7424
 4158SOL    MW416406   0.598   6.412   0.073 -0.5478 -0.4299  0.1218
 4159SOL     OW16407   5.433   2.898   0.564  0.2569  0.0226 -0.0267
 4159SOL    HW216408   5.344   2.873   0.540  0.2306  0.0475  0.0434
 4159SOL    HW316409   5.443   2.986   0.527 -0.4447  0.8530  1.6376
 4159SOL    MW416410   5.422   2.906   0.556 -0.3872  0.0288 -0.2429
 4160SOL     OW16411   5.342   1.782   3.270 -0.8337  0.4260 -0.4200
 4160SOL    HW216412   5.286   1.743   3.337 -0.8122  0.3361 -0.4542
 4160SOL    HW316413   5.337   1.721   3.196 -1.0470  0.6414 -0.5878
 4160SOL    MW416414   5.334   1.769   3.269 -0.1253  0.5597 -0.1856
 4161SOL     OW16415   2.162   2.710   0.617  0.0485  0.0767 -0.6448
 4161SOL    HW216416   2.133   2.705   0.708  0.4058 -3.7769 -0.5842
 4161SOL    HW316417   2.212   2.792   0.612 -0.7936  0.8868  2.3140
 4161SOL    MW416418   2.164   2.720   0.628  0.2275  0.3680  0.0868
 4162SOL     OW16419   5.650   0.217   2.599  0.2340 -0.2057  0.2309
 4162SOL    HW216420   5.658   0.251   2.510  1.4488  0.8693  0.7253
 4162SOL    HW316421   5.658   0.294   2.655  1.8110 -1.1096  1.3345
 4162SOL    MW416422   5.652   0.231   2.595  1.0653  0.2621  0.2455
 4163SOL     OW16423   1.317   2.208   4.993 -0.0574 -0.0704 -0.0523
 4163SOL    HW216424   1.326   2.115   5.015 -1.1390 -0.0743  0.4255
 4163SOL    HW316425   1.394   2.249   5.031 -0.9681 -0.3514  2.2410
 4163SOL    MW416426   1.328   2.201   5.001  0.1049  0.2947  0.0352
 4164SOL     OW16427   1.598   4.241   5.361  0.4110  0.2579  0.2280
 4164SOL    HW216428   1.620   4.319   5.413  0.3946 -0.9126  2.0958
 4164SOL    HW316429   1.647   4.251   5.280  0.6653  2.0484  0.5658
 4164SOL    MW416430   1.608   4.253   5.357 -0.3411  0.5904  0.2849
 4165SOL     OW16431   2.329   1.911   5.766  0.0761  0.6805 -0.0255
 4165SOL    HW216432   2.344   1.998   5.732 -1.0142  1.1594  0.6607
 4165SOL    HW316433   2.234   1.906   5.779  0.1794 -0.4103  0.4275
 4165SOL    MW416434   2.318   1.922   5.763 -0.4831 -0.2387  0.0146
 4166SOL     OW16435   2.568   2.636   5.820  0.5942  0.3031  0.1436
 4166SOL    HW216436   2.490   2.581   5.822  0.6280  0.2646  0.4711
 4166SOL    HW316437   2.547   2.705   5.758  0.1780  0.4695  0.4629
 4166SOL    MW416438   2.555   2.638   5.812 -0.0255 -0.0904 -0.1798
 4167SOL     OW16439   1.835   4.516   2.955  0.2022  0.0812 -0.1343
 4167SOL    HW216440   1.789   4.569   3.020  1.2536 -0.3550  1.0077
 4167SOL    HW316441   1.783   4.436   2.948 -2.3677  1.7962 -3.1392
 4167SOL    MW416442   1.822   4.512   2.962 -0.1529 -0.0269 -0.3931
 4168SOL     OW16443   0.467   2.629   6.125 -0.4735 -0.3112  0.3078
 4168SOL    HW216444   0.526   2.615   6.200  0.5710 -0.1486 -0.4617
 4168SOL    HW316445   0.436   2.719   6.135 -0.6240 -0.4062  0.7313
 4168SOL    MW416446   0.471   2.639   6.136 -0.2401 -0.3392 -0.0685
 4169SOL     OW16447   0.954   2.144   4.691  0.0629  0.4924 -0.4544
 4169SOL    HW216448   0.929   2.103   4.608  0.4978 -0.9671  0.1138
 4169SOL    HW316449   0.975   2.071   4.749 -0.2070  1.4883  0.9468
 4169SOL    MW416450   0.954   2.129   4.687 -0.4830 -0.2027  0.8493
 4170SOL     OW16451   1.962   3.448   5.540 -0.3621  0.2256 -0.1753
 4170SOL    HW216452   1.991   3.537   5.521  1.9070 -0.5418 -0.5953
 4170SOL    HW316453   1.932   3.413   5.456  2.4272 -0.6232 -0.9181
 4170SOL    MW416454   1.962   3.455   5.527  0.2267  0.4946 -0.5623
 4171SOL     OW16455   2.717   3.377   3.135 -0.0076  0.2906 -0.8770
 4171SOL    HW216456   2.695   3.348   3.046  1.7730  0.2030 -1.3239
 4171SOL    HW316457   2.668   3.459   3.146 -0.4270  0.1861 -1.8554
 4171SOL    MW416458   2.707   3.384   3.125  0.0266 -0.3835  0.2699
 4172SOL     OW16459   4.741   4.364   5.206  0.0370 -0.1538 -0.1293
 4172SOL    HW216460   4.801   4.317   5.263  0.0357 -0.1837 -0.1527
 4172SOL    HW316461   4.774   4.347   5.117  0.4330  0.4371 -0.1043
 4172SOL    MW416462   4.753   4.356   5.202  0.0925  0.2858  0.3908
 4173SOL     OW16463   1.908   0.141   0.194 -0.1292 -0.4236  0.2060
 4173SOL    HW216464   1.891   0.226   0.235  2.8525  0.1308  0.4539
 4173SOL    HW316465   1.976   0.157   0.130 -2.7592 -1.8115 -3.2767
 4173SOL    MW416466   1.915   0.154   0.191  0.1744  0.0244 -0.1489
 4174SOL     OW16467   4.684   3.157   0.649 -0.3821  0.2469 -0.2095
 4174SOL    HW216468   4.735   3.077   0.655 -1.5486 -0.5080  0.0935
 4174SOL    HW316469   4.715   3.201   0.570 -0.0108 -0.7163 -0.6051
 4174SOL    MW416470   4.695   3.152   0.640 -0.6121 -0.6459  0.4663
 4175SOL     OW16471   1.004   4.743   5.455  0.0686  0.1524  1.1732
 4175SOL    HW216472   0.939   4.812   5.445  0.1585  0.2274  1.1095
 4175SOL    HW316473   1.030   4.721   5.365 -0.9580 -0.9106  1.1040
 4175SOL    MW416474   0.999   4.749   5.442 -0.0514  0.5805  0.0009
 4176SOL     OW16475   3.724   2.590   4.829 -0.0806  0.0997 -0.1126
 4176SOL    HW216476   3.792   2.653   4.853  1.1912 -0.8070 -1.1829
 4176SOL    HW316477   3.755   2.507   4.867  0.4717 -0.7363 -2.2405
 4176SOL    MW416478   3.737   2.587   4.837 -0.3786  0.0545 -0.1260
 4177SOL     OW16479   1.680   4.124   3.993 -0.3082 -0.0891  0.4534
 4177SOL    HW216480   1.704   4.146   3.903  1.5957  1.8311  1.3536
 4177SOL    HW316481   1.707   4.032   4.002  0.6072  0.0560 -0.5665
 4177SOL    MW416482   1.686   4.115   3.982 -0.2854  0.5695 -0.1933
 4178SOL     OW16483   0.044   2.007   4.231  0.2311 -0.2207  0.1975
 4178SOL    HW216484   0.036   1.934   4.293 -0.9015 -0.2901 -0.0122
 4178SOL    HW316485   0.043   2.085   4.286  2.5483 -0.3368  0.5262
 4178SOL    MW416486   0.043   2.007   4.247 -0.1576  0.0143 -0.1909
 4179SOL     OW16487   2.465   5.840   1.963 -0.1065  0.0005 -0.4420
 4179SOL    HW216488   2.465   5.928   1.923  0.8544 -0.7975 -2.3289
 4179SOL    HW316489   2.373   5.823   1.983 -0.7267  0.3401 -2.7061
 4179SOL    MW416490   2.453   5.850   1.960 -0.1418 -0.9990 -0.0333
 4180SOL     OW16491   0.128   5.641   6.409  0.1512  0.4543  0.6877
 4180SOL    HW216492   0.063   5.615   6.344  0.3683  1.6452 -0.0432
 4180SOL    HW316493   0.115   5.581   6.482  0.2860 -1.3069 -0.6794
 4180SOL    MW416494   0.118   5.630   6.410 -0.4787  0.6664 -0.9633
 4181SOL     OW16495   3.815   5.987   4.940  0.0028 -0.3485 -0.3826
 4181SOL    HW216496   3.832   6.071   4.983 -0.0309 -0.2202 -0.6214
 4181SOL    HW316497   3.902   5.950   4.925  0.0004 -0.9839  0.9507
 4181SOL    MW416498   3.829   5.993   4.944 -0.3348 -0.3175 -0.0195
 4182SOL     OW16499   5.563   1.517   2.671 -0.0779 -0.4532 -0.6260
 4182SOL    HW216500   5.502   1.570   2.723 -1.0317  2.5836 -4.4058
 4182SOL    HW316501   5.509   1.445   2.638  0.2000 -1.6182  1.3056
 4182SOL    MW416502   5.548   1.514   2.674 -0.2453 -0.4258 -0.4333
 4183SOL     OW16503   2.156   6.189   5.789  0.7782 -0.2626 -0.2838
 4183SOL    HW216504   2.225   6.138   5.833  0.2306  0.3868  1.3994
 4183SOL    HW316505   2.162   6.162   5.697  3.1511 -0.3615 -0.1716
 4183SOL    MW416506   2.166   6.179   5.783 -0.3492  0.4521 -0.5211
 4184SOL     OW16507   3.546   5.728   1.357 -0.0032 -0.8113  0.1646
 4184SOL    HW216508   3.471   5.694   1.405 -0.1583 -0.0298  0.4923
 4184SOL    HW316509   3.618   5.670   1.381 -0.0811 -0.4419  1.3450
 4184SOL    MW416510   3.546   5.716   1.367  0.6480 -0.2754  0.1275
 4185SOL     OW16511   1.496   1.532   2.841  0.0439 -0.0225  0.6768
 4185SOL    HW216512   1.476   1.617   2.879  0.8715 -0.2891  1.7745
 4185SOL    HW316513   1.528   1.479   2.915  1.5160 -0.6313 -0.3344
 4185SOL    MW416514   1.498   1.536   2.856 -0.0686  0.4699  0.1861
 4186SOL     OW16515   0.482   0.499   4.419 -0.2249  1.1836 -0.2756
 4186SOL    HW216516   0.497   0.574   4.361  0.3834  1.1894 -0.1138
 4186SOL    HW316517   0.483   0.536   4.507 -2.4458  1.3912 -0.2794
 4186SOL    MW416518   0.484   0.514   4.423  0.4007 -0.3985  0.7078
 4187SOL     OW16519   0.751   5.795   4.811 -0.4544  0.6395 -0.2316
 4187SOL    HW216520   0.807   5.736   4.760  0.8107  0.9487  0.7744
 4187SOL    HW316521   0.666   5.750   4.813  0.4286 -1.0816  0.3437
 4187SOL    MW416522   0.747   5.781   4.804  0.2401 -0.2198  0.2056
 4188SOL     OW16523   2.743   4.147   0.606 -0.1368  0.1571 -0.7607
 4188SOL    HW216524   2.787   4.232   0.600  1.5419 -0.7512 -3.6511
 4188SOL    HW316525   2.689   4.143   0.526  0.2474 -1.6683 -0.9735
 4188SOL    MW416526   2.741   4.158   0.594 -0.0570  0.2167  0.3033
 4189SOL     OW16527   4.054   5.943   3.844 -0.2168  0.7472  0.9561
 4189SOL    HW216528   4.124   5.930   3.908  0.2329  1.2390  0.5627
 4189SOL    HW316529   4.055   6.037   3.825 -0.9429  0.7500  0.8984
 4189SOL    MW416530   4.063   5.954   3.850 -0.9461  0.4364  0.1042
 4190SOL     OW16531   1.139   0.090   3.629  0.2656  0.3696 -0.1935
 4190SOL    HW216532   1.172   0.002   3.613 -0.2716  0.1658 -0.1955
 4190SOL    HW316533   1.078   0.080   3.703 -3.2924 -0.0888 -2.9459
 4190SOL    MW416534   1.136   0.077   3.637 -0.2652  0.7257  0.1413
 4191SOL     OW16535   5.179   3.892   1.669  0.1743  0.1166 -0.2551
 4191SOL    HW216536   5.104   3.910   1.726  0.1207 -1.1874  0.1110
 4191SOL    HW316537   5.188   3.971   1.616 -2.7434 -0.4762 -1.7791
 4191SOL    MW416538   5.170   3.905   1.670 -0.4782  0.1567  0.0572
 4192SOL     OW16539   0.455   2.084   1.394 -0.2135  0.9818  0.4531
 4192SOL    HW216540   0.466   2.133   1.312  1.1924 -1.3556 -0.8688
 4192SOL    HW316541   0.375   2.033   1.381 -0.7736  1.6574  1.1543
 4192SOL    MW416542   0.446   2.083   1.381  0.2775 -0.9975  0.1245
 4193SOL     OW16543   2.050   4.013   4.152 -0.2908 -0.2975 -0.0106
 4193SOL    HW216544   2.046   4.077   4.081  1.0361  0.2195  0.3607
 4193SOL    HW316545   2.011   4.058   4.226  1.1543  0.3228  0.4030
 4193SOL    MW416546   2.044   4.027   4.152 -1.0694 -0.2824  0.8317
 4194SOL     OW16547   5.910   6.170   5.211 -0.2531 -0.1129  0.1840
 4194SOL    HW216548   5.876   6.169   5.122  0.4058  1.1108 -0.0994
 4194SOL    HW316549   5.862   6.101   5.256 -0.2036 -1.1338 -1.2582
 4194SOL    MW416550   5.899   6.161   5.205 -0.2454  0.8734 -0.4536
 4195SOL     OW16551   5.389   2.221   0.151 -0.0175 -0.2038 -0.0729
 4195SOL    HW216552   5.428   2.302   0.182 -0.5293  0.0807 -0.1779
 4195SOL    HW316553   5.375   2.169   0.231  0.6394 -0.3379 -0.0414
 4195SOL    MW416554   5.392   2.225   0.166  0.2006  0.1384 -0.0299
 4196SOL     OW16555   2.951   4.774   0.370  0.0795  0.1839 -0.3610
 4196SOL    HW216556   2.930   4.854   0.323 -1.7149 -0.3205 -0.4968
 4196SOL    HW316557   2.994   4.803   0.451 -0.7500  1.2922 -0.3004
 4196SOL    MW416558   2.954   4.788   0.375  0.3201  0.3352  0.0992
 4197SOL     OW16559   4.987   1.460   0.650 -0.4867 -0.2836 -0.3876
 4197SOL    HW216560   5.006   1.517   0.576 -2.5438  0.9623 -0.0571
 4197SOL    HW316561   4.899   1.426   0.632 -1.1847  0.3190  1.6162
 4197SOL    MW416562   4.978   1.463   0.638 -0.1158  0.2583  0.2143
 4198SOL     OW16563   2.580   5.882   0.896  0.3239 -0.5399 -0.2550
 4198SOL    HW216564   2.645   5.941   0.934 -0.1080 -0.2336  0.0146
 4198SOL    HW316565   2.523   5.858   0.969  0.9809 -1.9641 -0.1708
 4198SOL    MW416566   2.581   5.886   0.911 -0.0574 -0.1001  0.3859
 4199SOL     OW16567   0.843   5.163   0.907  0.4000  0.6553  0.0291
 4199SOL    HW216568   0.804   5.250   0.919  0.9478  1.1561 -1.5867
 4199SOL    HW316569   0.770   5.107   0.882  0.5096  1.4232 -2.2440
 4199SOL    MW416570   0.828   5.167   0.905 -0.4547 -0.5290 -0.3702
 4200SOL     OW16571   1.513   0.909   3.197 -0.3565 -0.1536  0.7326
 4200SOL    HW216572   1.570   0.840   3.230 -0.7983 -0.6555  0.4669
 4200SOL    HW316573   1.535   0.986   3.249 -0.2547 -0.6448  1.4243
 4200SOL    MW416574   1.523   0.910   3.208 -0.2443  0.6913 -0.3970
 4201SOL     OW16575   1.199   4.349   2.608 -0.5151 -0.0611 -0.1525
 4201SOL    HW216576   1.166   4.433   2.575  0.0761  0.0973 -0.3541
 4201SOL    HW316577   1.289   4.344   2.575 -0.4506 -0.6429  0.1004
 4201SOL    MW416578   1.207   4.359   2.599  0.0560 -0.4144  0.1026
 4202SOL     OW16579   1.350   5.857   5.958  0.1542 -0.3155  0.3502
 4202SOL    HW216580   1.351   5.787   5.893  0.5543  0.1455 -0.1531
 4202SOL    HW316581   1.323   5.934   5.909 -1.1865 -0.2895  1.0880
 4202SOL    MW416582   1.347   5.858   5.943  0.3232 -0.1410 -0.0928
 4203SOL     OW16583   0.508   5.571   5.089 -0.3535 -0.0543  0.3467
 4203SOL    HW216584   0.517   5.659   5.124  0.4217 -0.1210  0.3163
 4203SOL    HW316585   0.454   5.525   5.154 -0.5738  0.3731  0.4677
 4203SOL    MW416586   0.502   5.576   5.102  0.0951  0.2834 -0.3217
 4204SOL     OW16587   0.815   5.851   2.657 -0.3528  0.3244  0.2904
 4204SOL    HW216588   0.806   5.842   2.752 -1.8339 -0.5413  0.0900
 4204SOL    HW316589   0.800   5.763   2.623  1.0913  0.4261 -0.7107
 4204SOL    MW416590   0.812   5.839   2.665 -0.3193 -0.3491 -0.2562
 4205SOL     OW16591   5.112   5.341   2.642  0.1386  0.3441 -0.3221
 4205SOL    HW216592   5.154   5.422   2.615  0.1015  0.3032 -0.5022
 4205SOL    HW316593   5.036   5.369   2.693  1.8061  0.4440  2.3255
 4205SOL    MW416594   5.107   5.355   2.645  0.0699  0.1011  0.3693
 4206SOL     OW16595   0.795   0.396   4.947  0.1343 -0.3156 -0.3057
 4206SOL    HW216596   0.886   0.375   4.926 -0.0608 -0.7666 -0.7286
 4206SOL    HW316597   0.746   0.363   4.872 -0.4136 -0.3785  0.0809
 4206SOL    MW416598   0.801   0.389   4.934 -0.3821  0.4236  0.1928
 4207SOL     OW16599   0.393   6.182   4.150 -0.1230 -0.0380  0.1776
 4207SOL    HW216600   0.340   6.262   4.149 -0.0038  0.1484 -2.8686
 4207SOL    HW316601   0.337   6.116   4.109  0.9879 -0.5332 -0.6061
 4207SOL    MW416602   0.379   6.184   4.144 -0.2097  0.5069  0.3623
 4208SOL     OW16603   2.008   5.801   5.880  0.2093  0.5675  0.3252
 4208SOL    HW216604   1.972   5.890   5.885  0.6109  0.6706  1.8641
 4208SOL    HW316605   2.056   5.790   5.962  1.1074 -0.6783 -0.3357
 4208SOL    MW416606   2.010   5.812   5.892 -0.1645  0.2873 -0.4715
 4209SOL     OW16607   0.904   3.491   1.132  0.2730 -0.6566 -0.0011
 4209SOL    HW216608   0.864   3.480   1.218  1.3001  1.1746  0.7602
 4209SOL    HW316609   0.845   3.444   1.072 -0.9385 -1.2112  1.5542
 4209SOL    MW416610   0.891   3.483   1.135  0.0627 -0.4964 -0.5195
 4210SOL     OW16611   6.147   2.913   1.024  0.2401  0.2240 -0.3381
 4210SOL    HW216612   6.241   2.901   1.013 -0.0462 -0.9394 -1.9533
 4210SOL    HW316613   6.135   3.008   1.025  1.2471  0.4467 -2.3925
 4210SOL    MW416614   6.158   2.924   1.023 -0.1755 -0.3217 -0.1932
 4211SOL     OW16615   5.695   2.535   0.136 -0.0091  0.7376  0.3732
 4211SOL    HW216616   5.696   2.630   0.122  2.3818  0.6260 -0.8112
 4211SOL    HW316617   5.676   2.498   0.050  1.0092  0.1508  0.3793
 4211SOL    MW416618   5.693   2.543   0.123 -0.3856 -0.3916  0.3600
 4212SOL     OW16619   0.270   2.994   5.228 -0.3339  0.1340 -0.4397
 4212SOL    HW216620   0.210   3.050   5.179 -0.3057  0.8263  0.2921
 4212SOL    HW316621   0.225   2.977   5.310 -1.3180 -2.7674 -1.4752
 4212SOL    MW416622   0.256   2.999   5.233  0.0573 -0.0286  0.6046
 4213SOL     OW16623   3.473   5.437   3.419  0.0082  0.1851 -0.4192
 4213SOL    HW216624   3.558   5.422   3.377  0.4101 -2.0585  1.0135
 4213SOL    HW316625   3.492   5.496   3.491  0.0163  0.9988 -1.0722
 4213SOL    MW416626   3.486   5.442   3.423 -0.1512 -0.9086  0.1648
 4214SOL     OW16627   1.461   6.234   3.410 -0.0239 -0.0254  0.0735
 4214SOL    HW216628   1.452   6.285   3.329  0.8229 -1.5899 -1.0582
 4214SOL    HW316629   1.551   6.201   3.407 -0.6834 -2.0112  0.4616
 4214SOL    MW416630   1.472   6.236   3.399 -0.6468  0.5132  1.0391
 4215SOL     OW16631   4.233   5.367   0.903  0.2761  0.3528 -0.0604
 4215SOL    HW216632   4.179   5.434   0.863  1.0742  0.8650 -0.3085
 4215SOL    HW316633   4.171   5.299   0.930 -0.6148  1.4382  0.7294
 4215SOL    MW416634   4.218   5.367   0.901 -0.0692 -0.4681  0.1119
 4216SOL     OW16635   1.739   4.614   3.191 -0.2416 -0.1823  0.2325
 4216SOL    HW216636   1.650   4.601   3.160 -0.3839  0.3551  0.4039
 4216SOL    HW316637   1.746   4.559   3.270 -0.5289  0.0376  0.4105
 4216SOL    MW416638   1.728   4.605   3.197  0.0977  0.2425 -0.1492
 4217SOL     OW16639   3.140   0.327   3.954  0.5164  0.4437  0.5100
 4217SOL    HW216640   3.174   0.414   3.976 -0.1013  1.1823 -1.2455
 4217SOL    HW316641   3.056   0.344   3.911  0.4289 -1.0114  0.0499
 4217SOL    MW416642   3.134   0.341   3.951 -0.7025 -0.5188  0.5644
 4218SOL     OW16643   3.184   2.465   3.496 -0.0977 -0.2600  0.1600
 4218SOL    HW216644   3.243   2.389   3.495  0.4231  0.1434  0.0568
 4218SOL    HW316645   3.122   2.445   3.566 -0.0311 -0.8305  0.0663
 4218SOL    MW416646   3.184   2.452   3.505  0.4330  0.8067  0.5626
 4219SOL     OW16647   0.058   5.319   5.750 -0.3319 -0.1141 -0.0239
 4219SOL    HW216648   0.017   5.394   5.794 -0.2183 -1.1851  2.0555
 4219SOL    HW316649   0.096   5.268   5.822 -0.7461 -2.3748 -1.3275
 4219SOL    MW416650   0.058   5.322   5.766  0.0340  0.0195 -0.3755
 4220SOL     OW16651   6.424   0.533   2.048  0.8043 -0.3893 -0.1613
 4220SOL    HW216652   6.410   0.442   2.020  2.0749 -1.0842  1.3026
 4220SOL    HW316653   6.376   0.540   2.131  2.7830 -0.5536  1.0583
 4220SOL    MW416654   6.416   0.522   2.055  0.3957 -0.2580 -0.3463
 4221SOL     OW16655   5.231   5.174   0.622  0.0833 -0.2040  0.0138
 4221SOL    HW216656   5.247   5.242   0.688  1.6063 -0.4754 -0.0471
 4221SOL    HW316657   5.217   5.222   0.541  1.0190  0.0490 -0.0035
 4221SOL    MW416658   5.231   5.190   0.620  0.0168  0.7429 -0.1888
 4222SOL     OW16659   0.336   4.712   3.053  0.1720 -0.0087 -0.0312
 4222SOL    HW216660   0.299   4.796   3.026 -0.1705 -0.2010 -0.1740
 4222SOL    HW316661   0.429   4.717   3.032  0.2936  0.6060  0.6198
 4222SOL    MW416662   0.343   4.723   3.047  0.6293 -0.0383 -0.1596
 4223SOL     OW16663   0.228   5.020   3.628  0.4281  0.5281  0.1004
 4223SOL    HW216664   0.304   5.061   3.669  1.1419 -0.4580 -0.1948
 4223SOL    HW316665   0.243   5.031   3.534 -0.7827  2.0366  0.0406
 4223SOL    MW416666   0.240   5.027   3.621 -0.3159  0.6356  1.1717
 4224SOL     OW16667   5.766   2.503   2.915 -0.1903 -0.1100  0.2892
 4224SOL    HW216668   5.751   2.515   2.821  1.9363  0.4722 -0.0169
 4224SOL    HW316669   5.819   2.423   2.921  2.6676  1.6924  0.6231
 4224SOL    MW416670   5.771   2.494   2.903  0.1509 -0.2309 -0.6670
 4225SOL     OW16671   4.362   4.921   2.613 -0.0049 -0.0982  0.1355
 4225SOL    HW216672   4.332   4.875   2.534  0.1336  1.2383 -0.7138
 4225SOL    HW316673   4.411   4.996   2.580  0.3073  0.3172  1.5081
 4225SOL    MW416674   4.364   4.925   2.598  0.3841  0.2104  0.4621
 4226SOL     OW16675   5.330   0.530   1.000 -0.5952  0.3101 -0.3758
 4226SOL    HW216676   5.278   0.605   0.969  0.5439  0.1438 -2.8899
 4226SOL    HW316677   5.319   0.532   1.095 -0.5501  3.7237 -0.3212
 4226SOL    MW416678   5.322   0.540   1.009 -0.1225 -0.9492  0.2328
 4227SOL     OW16679   0.548   1.154   6.346 -0.0275 -0.2166  0.2535
 4227SOL    HW216680   0.607   1.213   6.392  0.8762  0.1412 -1.2846
 4227SOL    HW316681   0.545   1.188   6.257  2.5913 -3.8424 -1.4812
 4227SOL    MW416682   0.556   1.166   6.340  0.5368  0.1730  0.4838
 4228SOL     OW16683   6.275   4.063   0.083  0.0886  0.1597 -0.2985
 4228SOL    HW216684   6.345   4.124   0.106  0.2652  0.0140 -0.4474
 4228SOL    HW316685   6.316   4.000   0.023 -0.4049  0.6380 -1.1660
 4228SOL    MW416686   6.289   4.063   0.078  0.0729  0.6485 -0.1344
 4229SOL     OW16687   1.041   4.041   1.946 -0.5228  0.0116  0.0578
 4229SOL    HW216688   1.126   4.082   1.962 -0.2750  0.2567 -1.6733
 4229SOL    HW316689   0.989   4.108   1.902 -0.4901 -1.1396 -1.8190
 4229SOL    MW416690   1.045   4.055   1.942 -0.3738 -0.1293  0.0147
 4230SOL     OW16691   1.355   4.105   5.721 -0.1239 -0.2122  0.2917
 4230SOL    HW216692   1.337   4.174   5.785  0.3795 -0.5389  0.7973
 4230SOL    HW316693   1.301   4.031   5.750 -0.0469 -0.2950  0.2219
 4230SOL    MW416694   1.346   4.104   5.733  0.1596  0.7579 -0.2355
 4231SOL     OW16695   2.409   1.151   3.729  0.1615  0.0138  0.9343
 4231SOL    HW216696   2.394   1.062   3.696 -1.2454 -0.2788  2.2635
 4231SOL    HW316697   2.360   1.207   3.669  1.5662  0.0023 -0.2861
 4231SOL    MW416698   2.400   1.146   3.717  0.7208  0.0161  0.1920
 4232SOL     OW16699   2.597   3.078   0.765 -0.5246  0.6907  0.2772
 4232SOL    HW216700   2.582   3.128   0.685  0.2877 -0.2879 -0.5074
 4232SOL    HW316701   2.548   2.997   0.753  2.0478 -0.8381 -0.6458
 4232SOL    MW416702   2.589   3.074   0.753 -0.2060  0.5201  0.2133
 4233SOL     OW16703   0.570   2.118   5.844 -0.5636  0.3640 -0.2676
 4233SOL    HW216704   0.561   2.206   5.806  0.8912  0.2671 -0.8964
 4233SOL    HW316705   0.548   2.130   5.937  0.8930  1.7008 -0.0505
 4233SOL    MW416706   0.566   2.131   5.851 -0.3632 -0.1722 -0.4385
 4234SOL     OW16707   4.879   3.926   4.643 -0.0404 -0.4083  0.3462
 4234SOL    HW216708   4.953   3.897   4.590 -0.2036 -0.9111  0.3843
 4234SOL    HW316709   4.862   3.853   4.702 -0.8918 -0.5153 -0.0135
 4234SOL    MW416710   4.887   3.912   4.644  0.2541 -0.2568 -0.1809
 4235SOL     OW16711   5.529   0.740   4.793 -0.1911  0.8127  0.3249
 4235SOL    HW216712   5.577   0.733   4.876 -1.8504 -2.2864  1.1888
 4235SOL    HW316713   5.444   0.777   4.818 -1.0128 -0.9275  0.2394
 4235SOL    MW416714   5.524   0.744   4.807  0.6344 -0.4146  0.5192
 4236SOL     OW16715   0.163   2.293   0.155 -0.1866 -0.3201 -0.1468
 4236SOL    HW216716   0.131   2.308   0.066  2.2463 -1.6572 -1.3395
 4236SOL    HW316717   0.192   2.379   0.186  0.6274 -0.1282 -1.3856
 4236SOL    MW416718   0.162   2.306   0.147 -0.0519 -0.5211 -0.0645
 4237SOL     OW16719   1.949   4.587   0.392  0.2526  0.3005 -0.2019
 4237SOL    HW216720   2.032   4.547   0.367  1.2565  1.2881  1.3389
 4237SOL    HW316721   1.885   4.516   0.389  1.3823 -0.7321 -0.3386
 4237SOL    MW416722   1.951   4.573   0.388  0.1736  0.4196 -0.1775
 4238SOL     OW16723   0.593   4.067   1.389  0.2616  0.4311  0.4457
 4238SOL    HW216724   0.585   3.974   1.368  1.8467  0.6903 -1.6240
 4238SOL    HW316725   0.652   4.069   1.464  1.0115 -0.1935 -0.1130
 4238SOL    MW416726   0.599   4.055   1.396  0.2690 -0.2575 -1.0931
 4239SOL     OW16727   1.669   4.000   1.146  0.1396 -0.6667 -0.8412
 4239SOL    HW216728   1.715   3.925   1.183  0.3984 -0.5240 -0.8715
 4239SOL    HW316729   1.590   3.963   1.106  0.2139 -0.9079 -0.7661
 4239SOL    MW416730   1.664   3.986   1.146  0.4307  0.1966 -0.5763
 4240SOL     OW16731   6.137   2.641   4.636  0.1834 -0.2794  0.1801
 4240SOL    HW216732   6.184   2.574   4.585 -1.4764 -1.4991  0.1464
 4240SOL    HW316733   6.119   2.711   4.573  2.8652  0.7745  0.4649
 4240SOL    MW416734   6.141   2.641   4.621  0.1415  0.3853  0.3540
 4241SOL     OW16735   2.633   2.503   0.709  0.5427 -0.0368 -0.3042
 4241SOL    HW216736   2.550   2.549   0.700  0.5054 -0.0125  0.1325
 4241SOL    HW316737   2.612   2.423   0.756  1.1642  1.3313  2.5777
 4241SOL    MW416738   2.620   2.499   0.714 -0.1572 -0.4311 -1.1431
 4242SOL     OW16739   1.751   5.253   5.392 -0.3285 -0.5578  0.0503
 4242SOL    HW216740   1.745   5.225   5.300 -1.0102  0.6956 -0.3046
 4242SOL    HW316741   1.669   5.300   5.409  0.2752  0.2118  0.9588
 4242SOL    MW416742   1.739   5.256   5.382  0.3387 -0.2243  0.0513
 4243SOL     OW16743   0.367   2.836   5.805  0.3910 -0.6436  0.1499
 4243SOL    HW216744   0.297   2.851   5.868  0.4506 -1.9609  0.5536
 4243SOL    HW316745   0.375   2.741   5.799  1.9390 -0.5315 -0.1131
 4243SOL    MW416746   0.359   2.826   5.812 -0.4374 -0.5001  0.1094
 4244SOL     OW16747   5.776   1.559   5.147  1.1753 -0.3048  0.5800
 4244SOL    HW216748   5.773   1.613   5.069 -0.6836 -0.5637  0.4296
 4244SOL    HW316749   5.762   1.470   5.115 -0.8434 -0.2924  1.2459
 4244SOL    MW416750   5.774   1.554   5.133  0.4772 -0.2752  0.2556
 4245SOL     OW16751   0.371   2.542   2.023  0.5959  0.1144 -0.3972
 4245SOL    HW216752   0.404   2.508   1.940  0.6172 -0.6945 -0.0720
 4245SOL    HW316753   0.437   2.516   2.088 -0.1976 -0.7156  0.1166
 4245SOL    MW416754   0.384   2.534   2.021 -0.0311  0.0501 -0.6826
 4246SOL     OW16755   4.372   0.430   0.937  0.1980  0.9094  0.0669
 4246SOL    HW216756   4.397   0.511   0.980 -1.7966  1.7265 -0.1913
 4246SOL    HW316757   4.300   0.455   0.879  0.0024 -0.9305 -0.5573
 4246SOL    MW416758   4.366   0.444   0.935  0.7978 -0.0951 -1.1902
 4247SOL     OW16759   3.466   5.177   2.199  0.4911 -0.2235 -0.2325
 4247SOL    HW216760   3.418   5.127   2.266 -0.0746 -1.0365 -1.2032
 4247SOL    HW316761   3.525   5.113   2.159  2.1174  0.6764  0.6598
 4247SOL    MW416762   3.467   5.162   2.203 -0.0166 -0.4063  0.2251
 4248SOL     OW16763   1.973   3.122   6.001  0.1589 -0.4208  0.6645
 4248SOL    HW216764   1.892   3.149   6.045 -0.1101 -0.4757  0.2042
 4248SOL    HW316765   1.983   3.184   5.929 -0.6943 -1.7530 -0.6611
 4248SOL    MW416766   1.963   3.134   5.998  0.0893 -0.2994 -0.0197
 4249SOL     OW16767   3.732   0.360   3.206 -0.1232 -0.0136  0.8076
 4249SOL    HW216768   3.742   0.268   3.228 -0.9494 -0.3600 -0.1789
 4249SOL    HW316769   3.797   0.405   3.260  0.1963 -1.1506  1.4007
 4249SOL    MW416770   3.742   0.354   3.216 -0.1595 -1.1018  0.1342
 4250SOL     OW16771   2.279   5.468   5.099 -0.7694  0.4588 -0.0768
 4250SOL    HW216772   2.193   5.437   5.127  0.0282 -1.4430  0.4925
 4250SOL    HW316773   2.288   5.439   5.009 -0.5937  0.3289 -0.0196
 4250SOL    MW416774   2.269   5.460   5.091  0.1701 -0.0204 -0.3323
 4251SOL     OW16775   6.309   1.948   3.131  0.0674  0.5568 -0.1188
 4251SOL    HW216776   6.216   1.972   3.137  0.3521  1.8303 -0.3848
 4251SOL    HW316777   6.349   1.993   3.206  0.1680 -1.7306  1.2833
 4251SOL    MW416778   6.302   1.957   3.142  0.9630  0.7042 -0.7746
 4252SOL     OW16779   1.303   3.114   1.006  0.2521 -0.4064  0.1252
 4252SOL    HW216780   1.260   3.085   1.087  0.6408 -0.3085  0.3735
 4252SOL    HW316781   1.273   3.053   0.939 -0.9593  0.1813  0.0959
 4252SOL    MW416782   1.293   3.102   1.008 -0.1075  0.0071 -0.3477
 4253SOL     OW16783   0.114   4.435   3.745  0.2134 -0.5198  0.0753
 4253SOL    HW216784   0.033   4.476   3.717  0.4520  0.2283  0.4549
 4253SOL    HW316785   0.173   4.446   3.670  1.0487  2.0277  1.0051
 4253SOL    MW416786   0.111   4.442   3.731  0.2050  0.0341 -0.0808
 4254SOL     OW16787   1.800   2.588   2.846  0.4065  0.1873  0.0557
 4254SOL    HW216788   1.856   2.512   2.862  0.9177  0.2035 -1.4693
 4254SOL    HW316789   1.730   2.554   2.790 -0.6249  0.3648  1.2189
 4254SOL    MW416790   1.799   2.573   2.840  0.2911  0.1126 -0.0530
 4255SOL     OW16791   3.380   5.331   3.007  0.2176  0.4071  0.1942
 4255SOL    HW216792   3.311   5.337   3.074  0.5579 -2.4828  0.9099
 4255SOL    HW316793   3.460   5.354   3.053  0.2319 -0.0109  0.3847
 4255SOL    MW416794   3.381   5.335   3.022  0.2238 -0.1800  0.1227
 4256SOL     OW16795   1.925   3.616   5.211  1.0421 -0.0157  0.2208
 4256SOL    HW216796   1.948   3.523   5.209  0.1281 -0.2587  0.4589
 4256SOL    HW316797   1.840   3.621   5.166  0.3946  0.4804  1.4422
 4256SOL    MW416798   1.917   3.604   5.205 -0.0683 -0.2154 -0.0862
 4257SOL     OW16799   2.348   2.330   5.277 -0.4845 -0.0237  0.4576
 4257SOL    HW216800   2.442   2.344   5.270 -0.4536 -0.3304  0.2050
 4257SOL    HW316801   2.320   2.386   5.349 -0.3105  1.0367 -0.2715
 4257SOL    MW416802   2.356   2.339   5.285  0.0765  0.2392 -0.1131
 4258SOL     OW16803   2.055   1.431   1.758 -0.9186 -0.8174  0.1634
 4258SOL    HW216804   2.146   1.404   1.770 -0.4935 -0.2374 -1.4569
 4258SOL    HW316805   2.059   1.527   1.757 -1.6231 -0.7761  0.5026
 4258SOL    MW416806   2.067   1.440   1.759  0.0235  0.2924  0.0696
 4259SOL     OW16807   1.564   5.954   2.463 -0.0749  1.1207  0.2117
 4259SOL    HW216808   1.644   5.902   2.468  1.0424  2.5449 -1.6174
 4259SOL    HW316809   1.512   5.912   2.395 -0.5446  0.6584  0.8471
 4259SOL    MW416810   1.568   5.942   2.454 -0.0298  0.0737 -0.1374
 4260SOL     OW16811   3.149   1.891   2.819 -0.8568 -0.2161  0.4957
 4260SOL    HW216812   3.157   1.839   2.899  0.0810 -0.6297  0.1447
 4260SOL    HW316813   3.064   1.934   2.827 -0.2005  0.8529  2.3514
 4260SOL    MW416814   3.139   1.890   2.830 -0.2116  0.5890 -0.3721
 4261SOL     OW16815   0.132   2.974   0.353 -0.2055  0.3085 -0.3604
 4261SOL    HW216816   0.219   2.999   0.384 -1.1742  0.7607  2.3379
 4261SOL    HW316817   0.077   3.049   0.377 -1.6074 -0.6519 -0.4911
 4261SOL    MW416818   0.136   2.987   0.360 -0.6266 -0.2188  0.4500
 4262SOL     OW16819   3.349   0.325   5.837  0.6411 -0.5953  0.2733
 4262SOL    HW216820   3.275   0.290   5.789  0.2405  0.3044  0.2099
 4262SOL    HW316821   3.344   0.285   5.924 -0.1658 -0.2241  0.4036
 4262SOL    MW416822   3.339   0.315   5.843 -0.7391  0.5283 -0.1175
 4263SOL     OW16823   2.309   4.187   4.714  0.1122  0.6369 -0.2751
 4263SOL    HW216824   2.371   4.114   4.720  0.6440  1.0393 -0.7878
 4263SOL    HW316825   2.223   4.145   4.721  0.3888 -0.1210 -1.1345
 4263SOL    MW416826   2.306   4.172   4.716  0.8295 -0.5040  0.5966
 4264SOL     OW16827   3.738   1.013   1.113 -0.6952 -0.3332 -0.2627
 4264SOL    HW216828   3.713   0.934   1.161 -3.0579  0.5702  0.1181
 4264SOL    HW316829   3.721   0.991   1.021 -2.0181 -0.0778 -0.0988
 4264SOL    MW416830   3.732   0.999   1.107 -0.5907  0.1484  0.1856
 4265SOL     OW16831   0.373   0.631   0.586  0.3990 -0.5352 -0.8789
 4265SOL    HW216832   0.285   0.623   0.622  0.6718 -0.8293 -0.2673
 4265SOL    HW316833   0.363   0.607   0.494  0.1645 -2.5044 -0.3965
 4265SOL    MW416834   0.360   0.627   0.579  0.2439 -0.3929 -0.5792
 4266SOL     OW16835   0.874   1.915   5.121 -0.5142 -0.0616 -0.2072
 4266SOL    HW216836   0.797   1.876   5.162 -0.0032  1.4461  2.4006
 4266SOL    HW316837   0.947   1.890   5.178  0.6558  0.1124 -1.5718
 4266SOL    MW416838   0.874   1.907   5.134  0.1151  0.3450 -0.1911
 4267SOL     OW16839   2.930   4.785   1.855  1.0323 -0.1179  0.0938
 4267SOL    HW216840   2.924   4.705   1.907  1.4660 -0.2261 -0.0211
 4267SOL    HW316841   2.992   4.765   1.786  2.0466  0.6883  0.7357
 4267SOL    MW416842   2.937   4.772   1.853  0.2099  0.4171 -0.4789
 4268SOL     OW16843   3.296   1.080   2.062 -0.2005 -0.7038  0.1265
 4268SOL    HW216844   3.241   1.014   2.019 -1.9966  0.5102  0.4588
 4268SOL    HW316845   3.331   1.133   1.990 -1.8059  0.2612  0.0207
 4268SOL    MW416846   3.294   1.078   2.047  0.0279  0.5785  0.3042
 4269SOL     OW16847   6.319   1.397   6.341  0.1043 -0.3319 -0.1861
 4269SOL    HW216848   6.278   1.318   6.376 -1.5287  0.7540  0.4755
 4269SOL    HW316849   6.259   1.468   6.365  1.2124  1.0399 -1.2885
 4269SOL    MW416850   6.306   1.396   6.349 -0.1923  0.1119  0.4045
 4270SOL     OW16851   0.385   1.500   4.388 -0.1695 -0.1332 -0.3844
 4270SOL    HW216852   0.400   1.424   4.444 -1.0530  0.4847  0.7348
 4270SOL    HW316853   0.470   1.544   4.384  0.4739 -1.4167 -1.4458
 4270SOL    MW416854   0.398   1.496   4.395  0.7588 -0.4703  1.0315
 4271SOL     OW16855   1.479   4.427   4.932  0.7636 -0.0790  0.5269
 4271SOL    HW216856   1.471   4.338   4.899  0.0273  0.2223 -0.1362
 4271SOL    HW316857   1.390   4.462   4.931  0.8878  0.3278  1.7740
 4271SOL    MW416858   1.466   4.420   4.927  0.1268  0.3954  0.3478
 4272SOL     OW16859   6.431   0.829   0.115 -0.3208 -0.0469  0.4838
 4272SOL    HW216860   6.499   0.787   0.168 -0.5084  0.4029  1.1001
 4272SOL    HW316861   6.421   0.773   0.039  1.6452  0.5235 -0.2572
 4272SOL    MW416862   6.439   0.816   0.112 -0.0113 -0.0903 -0.6647
 4273SOL     OW16863   1.487   5.102   1.090 -0.2048 -0.1612 -0.1287
 4273SOL    HW216864   1.415   5.121   1.030 -2.1824  0.8873  2.4112
 4273SOL    HW316865   1.556   5.163   1.065 -0.7254 -0.1680 -1.6894
 4273SOL    MW416866   1.486   5.112   1.079 -0.2917  0.0477  0.1932
 4274SOL     OW16867   2.005   2.537   5.687 -0.2512 -0.0000 -0.0815
 4274SOL    HW216868   2.092   2.568   5.660  0.6068 -1.9891  0.2071
 4274SOL    HW316869   2.010   2.537   5.783 -1.1599  1.3536 -0.0094
 4274SOL    MW416870   2.017   2.541   5.696 -0.0963 -0.6452  0.0949
 4275SOL     OW16871   2.712   3.781   4.460  0.0647 -0.0653  0.6011
 4275SOL    HW216872   2.654   3.705   4.449 -1.1556  0.9116  0.0242
 4275SOL    HW316873   2.687   3.840   4.389  1.2997  0.6993  0.7729
 4275SOL    MW416874   2.701   3.778   4.449  0.0850 -0.3743  0.2058
 4276SOL     OW16875   2.575   2.628   1.957 -0.0415 -0.0105 -0.2305
 4276SOL    HW216876   2.572   2.714   1.998  1.5121 -0.7563  1.6243
 4276SOL    HW316877   2.656   2.627   1.906  0.0242 -0.4017 -0.1283
 4276SOL    MW416878   2.585   2.639   1.956  0.6252  1.0530  0.2784
 4277SOL     OW16879   0.263   2.324   5.464  0.0926  0.1123 -0.6078
 4277SOL    HW216880   0.223   2.240   5.443  2.2616 -1.2466  0.3672
 4277SOL    HW316881   0.195   2.372   5.510 -1.0679 -1.2730 -0.8174
 4277SOL    MW416882   0.249   2.319   5.467 -0.8738 -0.5168 -0.0969
 4278SOL     OW16883   5.048   3.480   0.102  0.7494  0.0599 -0.3505
 4278SOL    HW216884   5.020   3.423   0.173 -1.1231 -1.0837 -1.8990
 4278SOL    HW316885   4.995   3.559   0.112  0.2179 -0.2508 -0.6603
 4278SOL    MW416886   5.037   3.483   0.112  0.2287 -0.3068 -0.4314
 4279SOL     OW16887   6.258   2.392   0.603 -0.1908  1.0979  0.1999
 4279SOL    HW216888   6.250   2.338   0.682 -1.2679  0.4736 -0.3157
 4279SOL    HW316889   6.203   2.468   0.621 -2.1368 -0.0125 -0.7074
 4279SOL    MW416890   6.250   2.395   0.616 -0.1881  0.0389  0.0305
 4280SOL     OW16891   2.822   5.480   4.429  0.0350 -0.0636 -0.2014
 4280SOL    HW216892   2.735   5.514   4.450 -0.5112 -0.4429 -1.7627
 4280SOL    HW316893   2.882   5.549   4.459 -0.7931  0.2322  0.8204
 4280SOL    MW416894   2.819   5.494   4.436  0.3635 -0.2893  0.2328
 4281SOL     OW16895   0.041   3.054   1.227  0.8861  0.1953  0.3751
 4281SOL    HW216896   0.062   3.025   1.139  1.2057 -4.7681  1.8060
 4281SOL    HW316897   0.125   3.082   1.264  0.4740  4.2159 -1.2259
 4281SOL    MW416898   0.055   3.054   1.221 -0.7638  0.3134 -0.6058
 4282SOL     OW16899   0.275   5.653   4.081  0.1807 -1.1782  0.5845
 4282SOL    HW216900   0.280   5.705   4.000  0.9735 -1.1791  0.6228
 4282SOL    HW316901   0.290   5.563   4.053  0.5001 -1.1737  0.7294
 4282SOL    MW416902   0.278   5.648   4.067  0.0127  0.3056  0.3300
 4283SOL     OW16903   3.621   1.078   0.493 -0.2588 -0.2297  0.1471
 4283SOL    HW216904   3.564   1.068   0.417  0.6716 -0.4233 -0.5506
 4283SOL    HW316905   3.584   1.018   0.558  0.2649 -1.8899 -0.9907
 4283SOL    MW416906   3.608   1.069   0.491  0.6399  0.4673 -0.3297
 4284SOL     OW16907   3.607   1.783   3.753 -0.5040 -0.3786  0.0338
 4284SOL    HW216908   3.689   1.817   3.718  0.0965 -0.3326  1.4204
 4284SOL    HW316909   3.620   1.783   3.848 -1.9896 -0.6798  0.2561
 4284SOL    MW416910   3.619   1.788   3.761  0.3585  0.2029 -0.1881
 4285SOL     OW16911   5.866   1.019   6.308  0.1305 -0.3232  0.4178
 4285SOL    HW216912   5.843   1.017   6.215  0.5407 -0.0103  0.3053
 4285SOL    HW316913   5.914   0.938   6.323 -1.4614 -1.2445  0.7776
 4285SOL    MW416914   5.869   1.008   6.298 -0.2714  0.0784 -0.3951
 4286SOL     OW16915   3.227   1.682   3.900  0.4456  0.3850 -0.1023
 4286SOL    HW216916   3.212   1.664   3.993  0.2772  0.2245 -0.1603
 4286SOL    HW316917   3.206   1.774   3.889  0.3334  0.3693 -0.0089
 4286SOL    MW416918   3.223   1.691   3.911 -0.1077 -0.9418 -0.0046
 4287SOL     OW16919   4.143   0.156   0.247  0.3970  0.5525 -0.5354
 4287SOL    HW216920   4.086   0.216   0.294  0.2272  0.4145 -0.5644
 4287SOL    HW316921   4.104   0.149   0.160  0.4646  0.4680 -0.5591
 4287SOL    MW416922   4.130   0.163   0.242  0.0380 -0.7076 -0.7397
 4288SOL     OW16923   2.964   3.273   6.009  0.0405  0.1893 -0.1101
 4288SOL    HW216924   2.911   3.244   5.935 -0.5872 -0.6777  0.6661
 4288SOL    HW316925   2.963   3.200   6.070  1.4035  0.4915  0.3236
 4288SOL    MW416926   2.957   3.260   6.007 -0.3752 -0.8937 -0.0040
 4289SOL     OW16927   3.606   3.551   3.300  0.0524  0.3845 -0.1473
 4289SOL    HW216928   3.582   3.643   3.313 -0.6478 -0.0923  2.4287
 4289SOL    HW316929   3.694   3.544   3.336 -0.3613 -0.1835  0.7761
 4289SOL    MW416930   3.614   3.563   3.306  0.4215  0.3209  0.5205
 4290SOL     OW16931   2.070   1.083   2.649 -0.3543  0.3635  0.1564
 4290SOL    HW216932   2.127   1.104   2.575 -1.9048  0.9686 -0.9246
 4290SOL    HW316933   2.094   1.147   2.716  0.7837  0.0806  0.0391
 4290SOL    MW416934   2.080   1.094   2.648  0.0872  0.1552 -0.2154
 4291SOL     OW16935   4.185   4.714   2.964 -0.0685  0.0696 -0.0592
 4291SOL    HW216936   4.214   4.709   3.055  0.0545 -1.1240 -0.1446
 4291SOL    HW316937   4.180   4.808   2.945  0.3834  0.3246  1.0210
 4291SOL    MW416938   4.188   4.726   2.974  0.2354 -0.1820  0.3854
 4292SOL     OW16939   0.051   2.167   1.301 -0.3191  0.2771  0.0920
 4292SOL    HW216940   0.016   2.133   1.383  0.4775 -1.3975 -0.2165
 4292SOL    HW316941   0.110   2.238   1.328 -2.1183  1.6148  0.7435
 4292SOL    MW416942   0.054   2.172   1.315  0.3124  0.7846  0.1873
 4293SOL     OW16943   2.390   3.306   1.585  0.0001  0.1502  0.1983
 4293SOL    HW216944   2.378   3.361   1.508  1.1406 -0.9566 -0.8250
 4293SOL    HW316945   2.340   3.226   1.566  0.7096 -0.3430  0.3654
 4293SOL    MW416946   2.382   3.303   1.572 -0.3657  0.3199 -0.4524
 4294SOL     OW16947   0.903   6.349   2.231  0.9423 -0.4002 -0.1413
 4294SOL    HW216948   0.920   6.364   2.138  0.7986  1.6369  0.1137
 4294SOL    HW316949   0.987   6.367   2.274  0.8444 -0.7392  0.2005
 4294SOL    MW416950   0.917   6.353   2.224 -0.4529 -0.1042  0.0593
 4295SOL     OW16951   2.602   3.497   4.970  0.0549  0.6929 -0.3187
 4295SOL    HW216952   2.524   3.461   5.010  1.2512 -2.4899 -0.5098
 4295SOL    HW316953   2.601   3.464   4.880  0.2213  3.0352 -1.2684
 4295SOL    MW416954   2.592   3.488   4.963 -0.2229  0.0660  0.2232
 4296SOL     OW16955   4.962   5.931   5.949 -0.7979  0.0953 -0.3061
 4296SOL    HW216956   4.979   5.942   5.855 -0.2091  0.3665 -0.1773
 4296SOL    HW316957   4.875   5.893   5.954 -1.2371  0.9800 -0.9341
 4296SOL    MW416958   4.953   5.928   5.937  0.5797 -0.0173 -0.2762
 4297SOL     OW16959   5.804   5.807   3.225 -1.1460  0.3267  0.0001
 4297SOL    HW216960   5.836   5.823   3.136  1.4335  0.3270  0.8420
 4297SOL    HW316961   5.799   5.711   3.231 -0.5192  0.2896  0.0714
 4297SOL    MW416962   5.808   5.796   3.214  0.7205 -0.0870 -0.0642
 4298SOL     OW16963   0.506   0.724   5.659  0.0211  0.2510 -0.2880
 4298SOL    HW216964   0.464   0.794   5.610 -0.7507 -0.6793 -1.0101
 4298SOL    HW316965   0.599   0.732   5.638 -0.3856 -0.8127 -2.9186
 4298SOL    MW416966   0.513   0.734   5.650  0.2478 -0.3059  0.0674
 4299SOL     OW16967   1.774   2.258   1.544  0.2226  0.0310 -0.5307
 4299SOL    HW216968   1.817   2.280   1.461  0.1763  1.2642 -0.2503
 4299SOL    HW316969   1.801   2.168   1.562  1.2922  0.1975 -1.2216
 4299SOL    MW416970   1.783   2.249   1.535  0.2172 -0.0582  0.1559
 4300SOL     OW16971   4.737   0.713   2.022 -0.0492  0.2261 -0.1729
 4300SOL    HW216972   4.730   0.666   2.105 -1.7520  0.0917 -0.3600
 4300SOL    HW316973   4.809   0.671   1.976  2.0460  1.3364  1.8610
 4300SOL    MW416974   4.745   0.702   2.027  0.1481  0.0608 -0.2175
 4301SOL     OW16975   4.344   2.373   5.689 -0.1042  0.4712  0.5667
 4301SOL    HW216976   4.304   2.311   5.750  0.9702  0.7881  1.6403
 4301SOL    HW316977   4.331   2.458   5.732 -0.7304  0.8923 -0.4329
 4301SOL    MW416978   4.337   2.376   5.703 -0.0205  0.0083 -0.0839
 4302SOL     OW16979   3.023   2.673   3.342  0.2147 -0.0943  0.1082
 4302SOL    HW216980   3.094   2.617   3.372  0.3033 -0.0840 -0.0784
 4302SOL    HW316981   2.992   2.630   3.262  1.9710  1.4637 -1.5044
 4302SOL    MW416982   3.028   2.660   3.335  0.4851 -0.4921 -0.1038
 4303SOL     OW16983   6.354   3.144   5.502 -0.1092 -0.7149 -0.1370
 4303SOL    HW216984   6.438   3.099   5.491 -0.3333 -1.4054  0.7777
 4303SOL    HW316985   6.339   3.189   5.419  0.9391 -0.9693 -0.4760
 4303SOL    MW416986   6.363   3.144   5.490  0.1997 -0.4010 -0.0248
 4304SOL     OW16987   1.691   2.186   2.484 -0.3478 -0.2676 -0.7826
 4304SOL    HW216988   1.596   2.186   2.483 -0.3656  0.6849 -0.2073
 4304SOL    HW316989   1.714   2.125   2.553 -0.5683  0.3718 -0.1368
 4304SOL    MW416990   1.682   2.178   2.493 -0.6112  0.2089 -0.5449
 4305SOL     OW16991   0.230   3.632   3.981 -0.3626 -0.2168  0.0722
 4305SOL    HW216992   0.247   3.713   4.029  0.8715  0.1465 -0.9301
 4305SOL    HW316993   0.252   3.562   4.042 -1.8894  0.1590  1.1144
 4305SOL    MW416994   0.235   3.634   3.996 -0.4507  0.1739  0.2882
 4306SOL     OW16995   4.004   2.628   6.371  0.4152 -0.2285  0.8198
 4306SOL    HW216996   3.972   2.672   6.293 -0.5046 -0.7693  0.8739
 4306SOL    HW316997   3.933   2.635   6.434  0.5390 -1.1425  1.0783
 4306SOL    MW416998   3.991   2.634   6.369 -0.4838 -0.0105 -0.5594
 4307SOL     OW16999   3.990   1.742   1.630  0.5179  0.6141 -0.0822
 4307SOL    HW217000   3.919   1.806   1.628  1.4841  1.7040 -1.8835
 4307SOL    HW317001   3.957   1.668   1.578  0.3962  0.7825 -0.2481
 4307SOL    MW417002   3.976   1.741   1.623 -0.0761  0.0365  0.4293
 4308SOL     OW17003   4.396   3.403   5.585  0.1265 -0.0836 -0.3769
 4308SOL    HW217004   4.339   3.385   5.510 -1.1457 -2.0940  0.9662
 4308SOL    HW317005   4.353   3.475   5.631 -1.0008 -1.0846  0.2107
 4308SOL    MW417006   4.383   3.410   5.581 -0.2397 -0.0250 -0.1113
 4309SOL     OW17007   2.130   3.987   1.081 -0.2716  0.5835 -0.0331
 4309SOL    HW217008   2.179   4.069   1.080 -1.1000  1.1202  0.8298
 4309SOL    HW317009   2.073   3.992   1.004  0.8845  0.0188 -0.9594
 4309SOL    MW417010   2.129   3.999   1.071 -0.3654 -0.2163  0.3326
 4310SOL     OW17011   0.760   1.414   6.201  0.4142 -0.5890 -0.1159
 4310SOL    HW217012   0.830   1.372   6.250  0.1465 -1.2803 -0.3122
 4310SOL    HW317013   0.728   1.346   6.141  0.5938  0.1670 -1.1098
 4310SOL    MW417014   0.765   1.400   6.199  0.0723 -0.1885  0.0162
 4311SOL     OW17015   0.965   3.802   6.215  0.0271  0.1366 -0.7379
 4311SOL    HW217016   0.958   3.740   6.142  2.7278  0.4975 -1.3930
 4311SOL    HW317017   0.971   3.887   6.173 -0.0852  0.5233  0.0162
 4311SOL    MW417018   0.965   3.805   6.200  0.1726  0.3004  0.8427
 4312SOL     OW17019   3.367   3.895   5.328 -0.0152 -0.2103 -0.6609
 4312SOL    HW217020   3.409   3.809   5.319  0.1305 -0.0620 -1.4547
 4312SOL    HW317021   3.385   3.921   5.419  0.0601 -0.9536 -0.4558
 4312SOL    MW417022   3.375   3.887   5.339 -0.3165  0.4128 -0.5282
 4313SOL     OW17023   1.733   5.146   4.777  0.2106  0.5985  0.4203
 4313SOL    HW217024   1.657   5.097   4.744  1.3700 -0.5079 -0.7225
 4313SOL    HW317025   1.719   5.152   4.871 -1.3711  0.5678  0.2124
 4313SOL    MW417026   1.721   5.141   4.785  0.0683  0.5051  0.0912
 4314SOL     OW17027   4.796   0.558   0.903  0.1469 -0.0493  0.1821
 4314SOL    HW217028   4.725   0.521   0.851  0.9806 -0.0360 -1.0223
 4314SOL    HW317029   4.862   0.584   0.838  0.7873  0.9360  1.1878
 4314SOL    MW417030   4.796   0.557   0.887  0.2053 -0.0818 -0.5707
 4315SOL     OW17031   3.832   4.427   2.983 -0.5324 -0.7045 -0.0793
 4315SOL    HW217032   3.808   4.413   3.074 -0.5724 -0.4732 -0.0531
 4315SOL    HW317033   3.846   4.522   2.976  0.1523 -0.8088 -0.1539
 4315SOL    MW417034   3.830   4.438   2.994  0.2055  0.0405 -0.0333
 4316SOL     OW17035   3.475   3.977   5.581 -0.0569 -0.0578 -0.0747
 4316SOL    HW217036   3.421   4.056   5.586 -0.2467 -0.1377 -0.7342
 4316SOL    HW317037   3.482   3.947   5.671 -0.1727  0.5855  0.1567
 4316SOL    MW417038   3.469   3.983   5.594 -0.2876 -0.0293 -0.1620
 4317SOL     OW17039   5.476   3.562   4.547  0.2080  0.2144  0.3272
 4317SOL    HW217040   5.467   3.554   4.451  0.4992  0.0343  0.3149
 4317SOL    HW317041   5.491   3.472   4.576  1.2991  0.4207  0.4236
 4317SOL    MW417042   5.477   3.549   4.538 -0.4839 -0.0420  0.1519
 4318SOL     OW17043   3.042   3.094   4.828 -0.4473 -0.8422 -0.4618
 4318SOL    HW217044   3.042   3.002   4.801 -1.1349 -0.7015 -0.9625
 4318SOL    HW317045   3.106   3.136   4.770 -0.5136 -0.9116 -0.5861
 4318SOL    MW417046   3.050   3.087   4.817 -0.4810 -0.0536  0.2076
 4319SOL     OW17047   3.562   6.138   2.005 -0.2866  0.3060  0.6330
 4319SOL    HW217048   3.577   6.067   2.066 -0.0782  0.8026  1.1689
 4319SOL    HW317049   3.641   6.139   1.950 -1.6799 -2.0409 -1.6450
 4319SOL    MW417050   3.574   6.129   2.006 -0.2546  0.4117  0.0337
 4320SOL     OW17051   3.065   5.961   0.053 -0.2725  0.1517  0.2513
 4320SOL    HW217052   2.976   5.990   0.073 -0.3757 -0.2992  0.4652
 4320SOL    HW317053   3.120   6.034   0.078 -0.4968  0.0227  1.1459
 4320SOL    MW417054   3.060   5.974   0.059 -0.3455  0.3021  0.1279
 4321SOL     OW17055   5.696   4.117   1.272 -0.2677 -0.2301  0.3652
 4321SOL    HW217056   5.782   4.115   1.230  0.1643 -2.5719  1.2310
 4321SOL    HW317057   5.635   4.094   1.201 -0.1962  1.2621 -0.2083
 4321SOL    MW417058   5.699   4.114   1.257  0.7551  0.2291 -0.4788
 4322SOL     OW17059   1.182   4.251   5.063  0.0924  0.8892  0.8766
 4322SOL    HW217060   1.260   4.197   5.076 -1.2662 -0.8422  2.4276
 4322SOL    HW317061   1.188   4.281   4.972  3.0011  1.6563  1.1999
 4322SOL    MW417062   1.193   4.248   5.053 -0.0449  0.3293 -0.1579
 4323SOL     OW17063   4.999   4.811   3.488 -0.2956  0.6774 -0.5162
 4323SOL    HW217064   4.925   4.836   3.543 -0.3157  2.5147 -1.2898
 4323SOL    HW317065   5.063   4.775   3.549 -0.7104  1.7273  0.5864
 4323SOL    MW417066   4.998   4.810   3.504 -0.9313  0.2752 -0.0123
 4324SOL     OW17067   5.723   1.231   1.632  0.3245  0.2760 -0.1036
 4324SOL    HW217068   5.777   1.290   1.684  0.2730 -0.0852  0.3672
 4324SOL    HW317069   5.675   1.289   1.573  0.2921  0.7090  0.3368
 4324SOL    MW417070   5.724   1.247   1.631 -0.0738 -0.4958 -0.6215
 4325SOL     OW17071   0.547   6.086   3.379 -0.3545 -0.8059  0.6193
 4325SOL    HW217072   0.485   6.144   3.422 -0.0936  0.6082 -0.8233
 4325SOL    HW317073   0.507   6.065   3.295 -0.1434 -2.2040  0.8473
 4325SOL    MW417074   0.534   6.091   3.374 -0.5585  0.7294 -0.2822
 4326SOL     OW17075   3.544   1.935   2.393 -0.6557  0.1435 -0.5557
 4326SOL    HW217076   3.451   1.958   2.382 -0.6654  2.1537  2.4187
 4326SOL    HW317077   3.590   2.018   2.378  0.8349 -1.0082 -2.8147
 4326SOL    MW417078   3.538   1.949   2.389  0.1115 -0.2040  0.5744
 4327SOL     OW17079   5.300   6.128   1.178 -0.5009  0.7069 -0.1620
 4327SOL    HW217080   5.211   6.163   1.176 -0.2831  1.2964 -0.0137
 4327SOL    HW317081   5.351   6.192   1.128 -0.5695 -0.8739 -2.3577
 4327SOL    MW417082   5.295   6.141   1.171  0.1893 -0.1610 -0.4610
 4328SOL     OW17083   5.989   3.827   4.420 -0.1037  0.4996  0.1620
 4328SOL    HW217084   6.064   3.836   4.361  0.7041 -0.2852  1.0350
 4328SOL    HW317085   6.026   3.837   4.507 -1.3692  2.1923  0.5515
 4328SOL    MW417086   6.004   3.829   4.423  0.2277 -0.0819 -0.2881
 4329SOL     OW17087   4.602   6.422   3.843 -0.0306 -0.4423  0.3359
 4329SOL    HW217088   4.649   6.493   3.799  0.1160 -0.1369  0.9697
 4329SOL    HW317089   4.663   6.392   3.911  0.7833 -2.5978 -1.2430
 4329SOL    MW417090   4.617   6.427   3.846  0.3646 -0.1414  0.3763
 4330SOL     OW17091   0.867   0.856   1.686 -0.1984  0.7638 -1.1002
 4330SOL    HW217092   0.892   0.764   1.687 -0.9638  0.5475  0.3440
 4330SOL    HW317093   0.941   0.901   1.646  1.2987 -0.1654  0.5393
 4330SOL    MW417094   0.880   0.850   1.681  0.0605 -0.2637  0.1764
 4331SOL     OW17095   4.942   3.913   1.823 -0.0426  0.1778 -0.3648
 4331SOL    HW217096   4.964   3.909   1.916 -1.0951  0.8515 -0.0647
 4331SOL    HW317097   4.910   3.825   1.802  0.4351 -0.0483 -0.1661
 4331SOL    MW417098   4.941   3.901   1.832 -0.2468  0.0630  1.0769
 4332SOL     OW17099   1.916   3.791   0.082  0.1441  0.5026  0.0463
 4332SOL    HW217100   1.884   3.759  -0.003 -1.9173 -0.9602  1.2825
 4332SOL    HW317101   1.904   3.717   0.141  1.2350  1.5948  1.7192
 4332SOL    MW417102   1.911   3.777   0.078  0.3671  0.6148  0.1008
 4333SOL     OW17103   0.027   3.531   4.549  0.3260 -0.3800  0.7757
 4333SOL    HW217104   0.062   3.450   4.587 -1.2935 -1.9862 -0.9817
 4333SOL    HW317105   0.068   3.538   4.463  0.0209  0.3908  0.6819
 4333SOL    MW417106   0.037   3.521   4.543 -0.1341  0.1528 -0.0771
 4334SOL     OW17107   4.091   5.356   0.151  0.0769 -0.2425 -0.0866
 4334SOL    HW217108   4.072   5.269   0.184  1.2367 -0.6156 -0.3561
 4334SOL    HW317109   4.176   5.379   0.190 -0.2315  0.7821  0.0222
 4334SOL    MW417110   4.100   5.348   0.160 -0.0427 -0.2372 -0.0742
 4335SOL     OW17111   2.606   1.865   1.541 -0.1807 -0.3145  0.1536
 4335SOL    HW217112   2.579   1.848   1.631 -1.2354 -1.7741 -0.3926
 4335SOL    HW317113   2.573   1.953   1.522 -2.9089 -1.2117  0.2006
 4335SOL    MW417114   2.598   1.874   1.550  0.4121  0.5995 -0.0579
 4336SOL     OW17115   3.370   0.627   3.451 -0.2386  0.1469  0.4929
 4336SOL    HW217116   3.289   0.607   3.498 -0.8037  0.9003 -0.1201
 4336SOL    HW317117   3.403   0.542   3.422 -1.2466 -0.1086  0.0639
 4336SOL    MW417118   3.364   0.613   3.453 -0.1266  0.0752 -0.1320
 4337SOL     OW17119   3.609   4.261   2.610  0.1860 -0.0718  0.8301
 4337SOL    HW217120   3.574   4.191   2.664 -0.1282  0.1472  0.9123
 4337SOL    HW317121   3.575   4.244   2.522  0.5699 -0.3400  0.7319
 4337SOL    MW417122   3.600   4.250   2.606  0.8910  0.3209 -0.1751
 4338SOL     OW17123   0.612   3.471   2.086 -0.2905  0.5844 -0.0388
 4338SOL    HW217124   0.629   3.484   2.179  1.3753 -2.4936  0.2156
 4338SOL    HW317125   0.682   3.520   2.042 -1.1242  2.1069  0.2349
 4338SOL    MW417126   0.624   3.479   2.092  0.0028 -0.3438 -0.2585
 4339SOL     OW17127   0.219   5.933   3.225  0.2571 -0.5011  0.4842
 4339SOL    HW217128   0.168   5.988   3.285 -0.4356 -1.8369  1.1771
 4339SOL    HW317129   0.248   5.860   3.279  3.7599  0.6049  0.3658
 4339SOL    MW417130   0.216   5.931   3.240  0.4792 -0.1067  0.0962
 4340SOL     OW17131   2.231   4.198   6.305 -0.2496  0.3925 -0.0163
 4340SOL    HW217132   2.188   4.241   6.379  0.3453  0.2370  0.4248
 4340SOL    HW317133   2.248   4.109   6.335 -1.4966 -0.1848 -0.9373
 4340SOL    MW417134   2.228   4.192   6.318 -0.1091 -0.0762 -0.1755
 4341SOL     OW17135   3.296   0.928   2.527 -0.4335 -0.0103  0.0918
 4341SOL    HW217136   3.338   0.976   2.598 -0.2731 -0.7554  0.5178
 4341SOL    HW317137   3.316   0.979   2.449 -0.7899  0.9367  0.6011
 4341SOL    MW417138   3.304   0.941   2.526 -0.6997 -0.2196  0.7255
 4342SOL     OW17139   6.423   4.060   2.436 -0.1397  0.3859  0.3568
 4342SOL    HW217140   6.465   3.979   2.465 -0.0681  0.5033  0.5824
 4342SOL    HW317141   6.340   4.062   2.483 -0.4944  0.0546 -0.2362
 4342SOL    MW417142   6.417   4.050   2.446 -0.2423  0.2016 -0.0445
 4343SOL     OW17143   4.421   2.828   3.953 -0.1698  0.2082 -0.1791
 4343SOL    HW217144   4.401   2.908   3.905 -1.6523  0.3531  0.6156
 4343SOL    HW317145   4.380   2.840   4.039  0.9451 -0.7483  0.5215
 4343SOL    MW417146   4.413   2.840   3.958  0.0263  0.4880  0.0442
 4344SOL     OW17147   5.582   3.936   0.293  0.2721  0.8340  0.3123
 4344SOL    HW217148   5.573   3.997   0.366 -0.8926 -0.6540  1.4577
 4344SOL    HW317149   5.659   3.883   0.314  1.7930  2.3350 -1.0850
 4344SOL    MW417150   5.591   3.937   0.305 -0.3366 -0.9598  0.7402
 4345SOL     OW17151   2.177   4.271   5.036  0.3201 -0.5384  0.0696
 4345SOL    HW217152   2.186   4.320   4.954  2.1016 -0.6772  0.1395
 4345SOL    HW317153   2.098   4.307   5.076  0.6373  1.1198 -0.6729
 4345SOL    MW417154   2.168   4.282   5.030  0.7793 -0.1004 -0.1264
 4346SOL     OW17155   1.134   3.242   2.374 -0.3350  0.5327 -0.4026
 4346SOL    HW217156   1.144   3.334   2.395 -0.1440  0.0673  1.8050
 4346SOL    HW317157   1.189   3.197   2.438 -0.1744 -1.1011 -1.6335
 4346SOL    MW417158   1.142   3.248   2.385  0.2730 -0.2783  0.0418
 4347SOL     OW17159   5.697   2.288   3.610  0.7169  0.1858 -0.4803
 4347SOL    HW217160   5.688   2.356   3.677  0.9555  0.2934 -0.5571
 4347SOL    HW317161   5.645   2.320   3.536 -1.7407 -1.1350  0.5599
 4347SOL    MW417162   5.689   2.301   3.609 -0.4985 -0.3205  0.4054
 4348SOL     OW17163   5.339   3.322   3.211 -0.0675 -0.2257 -0.4957
 4348SOL    HW217164   5.284   3.255   3.253 -1.4267  1.0009 -0.2223
 4348SOL    HW317165   5.298   3.405   3.236  1.9883  0.7687 -0.2339
 4348SOL    MW417166   5.326   3.324   3.220  0.1408  0.0795  0.0041
 4349SOL     OW17167   0.284   2.370   3.675  0.3423  0.5726  0.5655
 4349SOL    HW217168   0.306   2.277   3.671  1.8635  0.9401 -1.2529
 4349SOL    HW317169   0.317   2.398   3.761  1.0849 -0.2995  0.5920
 4349SOL    MW417170   0.291   2.361   3.686  0.0189 -0.3790 -0.5743
 4350SOL     OW17171   1.205   3.681   0.160 -0.2905  0.2352 -0.2848
 4350SOL    HW217172   1.115   3.649   0.153  0.4182 -2.4721  1.4653
 4350SOL    HW317173   1.259   3.607   0.134  1.4917  1.9186 -1.6511
 4350SOL    MW417174   1.200   3.667   0.156 -0.3151  0.3078 -0.2170
 4351SOL     OW17175   2.282   5.470   2.411 -0.0384  0.0820 -0.0152
 4351SOL    HW217176   2.355   5.452   2.351  0.3212 -1.6492  0.8919
 4351SOL    HW317177   2.216   5.405   2.388 -0.4852  0.3524  0.5016
 4351SOL    MW417178   2.283   5.459   2.400 -0.2008 -0.3083 -0.1468
 4352SOL     OW17179   4.008   0.602   5.923 -0.0127  0.1911  0.3613
 4352SOL    HW217180   4.017   0.507   5.934  1.0017  0.1701 -0.4988
 4352SOL    HW317181   4.091   0.630   5.884 -0.3610  1.4134  0.4495
 4352SOL    MW417182   4.020   0.593   5.919 -0.2540 -0.1394 -0.0889
 4353SOL     OW17183   0.866   6.379   6.026 -0.3448 -0.4074  0.3996
 4353SOL    HW217184   0.827   6.292   6.022  0.1669 -0.7796  2.2222
 4353SOL    HW317185   0.828   6.426   5.953  0.1035 -2.4433 -1.2344
 4353SOL    MW417186   0.856   6.374   6.016 -0.3428  0.1933 -0.6284
 4354SOL     OW17187   5.789   4.209   2.444  0.0812 -0.2835  0.2802
 4354SOL    HW217188   5.757   4.192   2.533  1.3531 -0.0455  0.7982
 4354SOL    HW317189   5.730   4.160   2.388  0.5101 -2.1506  1.3855
 4354SOL    MW417190   5.777   4.201   2.449  0.0114 -0.0827 -0.3817
 4355SOL     OW17191   4.550   3.611   6.225 -0.2925 -0.2533  0.0704
 4355SOL    HW217192   4.609   3.570   6.288  1.1135  0.8532 -0.4679
 4355SOL    HW317193   4.587   3.590   6.140 -0.8733  0.1905 -0.3012
 4355SOL    MW417194   4.562   3.603   6.222  0.0499 -0.2683 -0.3224
 4356SOL     OW17195   4.458   6.266   4.324  0.4124 -0.4720  0.0238
 4356SOL    HW217196   4.551   6.291   4.320  0.5396 -0.6861  1.2029
 4356SOL    HW317197   4.448   6.200   4.255  1.1175 -0.4019 -0.1553
 4356SOL    MW417198   4.469   6.261   4.314  0.3070  0.1801 -0.0640
 4357SOL     OW17199   5.929   1.561   0.125  0.4003  0.0014 -0.0763
 4357SOL    HW217200   5.857   1.551   0.187  1.0083  0.9181  0.8130
 4357SOL    HW317201   5.938   1.474   0.084 -0.5331 -0.3951  0.5369
 4357SOL    MW417202   5.921   1.548   0.128 -0.2969 -0.1001 -0.2533
 4358SOL     OW17203   1.735   2.030   0.298 -0.2880 -0.3410 -0.2771
 4358SOL    HW217204   1.691   2.113   0.280 -1.0459 -1.1466 -2.4419
 4358SOL    HW317205   1.827   2.053   0.307 -0.5933  0.8324  0.1456
 4358SOL    MW417206   1.741   2.044   0.297  0.0344 -0.5871 -0.1085
 4359SOL     OW17207   3.045   2.105   6.186 -0.3283 -0.7436 -0.6625
 4359SOL    HW217208   2.968   2.070   6.141 -1.8099  0.8282  0.5386
 4359SOL    HW317209   3.028   2.090   6.279 -1.2149  3.1519 -0.0036
 4359SOL    MW417210   3.032   2.098   6.192 -0.4647  0.1151 -0.3634
 4360SOL     OW17211   0.211   4.830   0.961  0.4040 -0.0675 -0.5120
 4360SOL    HW217212   0.133   4.865   0.917  0.9127  0.3353 -1.1132
 4360SOL    HW317213   0.177   4.785   1.039 -0.3649  0.7078 -0.3886
 4360SOL    MW417214   0.196   4.829   0.965 -0.4156 -0.4363  0.2352
 4361SOL     OW17215   4.116   1.262   0.831 -0.1438 -0.1009  0.1303
 4361SOL    HW217216   4.166   1.264   0.750  2.8415 -0.0134  1.8053
 4361SOL    HW317217   4.152   1.187   0.879 -1.2240  0.3399  1.7134
 4361SOL    MW417218   4.127   1.252   0.827 -0.6578  0.2924  0.2836
 4362SOL     OW17219   5.525   4.258   4.969  0.3142 -0.0766 -0.1616
 4362SOL    HW217220   5.473   4.280   4.892  0.5134 -0.5870 -0.4503
 4362SOL    HW317221   5.614   4.245   4.935  0.2215 -1.2100  0.0050
 4362SOL    MW417222   5.530   4.259   4.955  0.0408 -0.5344  0.2223
 4363SOL     OW17223   0.167   1.235   2.888  0.5992  0.9085  0.2998
 4363SOL    HW217224   0.189   1.159   2.942 -1.3229 -0.4133 -0.6764
 4363SOL    HW317225   0.074   1.250   2.904 -0.4939 -0.4617 -3.5984
 4363SOL    MW417226   0.157   1.227   2.897 -1.1200  0.2408  0.2344
 4364SOL     OW17227   4.354   3.036   5.596 -0.1458 -0.0463 -0.3054
 4364SOL    HW217228   4.426   3.057   5.536 -0.2402  0.2971 -0.2985
 4364SOL    HW317229   4.312   3.120   5.614  1.9321  0.4995  2.9281
 4364SOL    MW417230   4.358   3.049   5.590 -0.5831 -0.0098 -0.2597
 4365SOL     OW17231   3.543   2.076   4.283  0.3630 -0.0660 -0.0605
 4365SOL    HW217232   3.499   2.091   4.199  1.1276 -0.6645 -0.5792
 4365SOL    HW317233   3.607   2.007   4.264 -0.4484 -1.2499  1.3541
 4365SOL    MW417234   3.546   2.069   4.269  0.0162  0.0776  0.5820
 4366SOL     OW17235   2.587   3.050   5.919  0.7656 -0.4337  0.3704
 4366SOL    HW217236   2.675   3.068   5.887  0.0549 -0.3736 -1.7315
 4366SOL    HW317237   2.551   3.136   5.940  0.9354 -0.3874  0.4733
 4366SOL    MW417238   2.594   3.063   5.917 -0.0120 -0.3341  0.2556
 4367SOL     OW17239   2.627   3.326   2.883  0.2756 -0.2292  0.1365
 4367SOL    HW217240   2.540   3.366   2.886 -0.3394 -1.3376 -1.2879
 4367SOL    HW317241   2.678   3.383   2.825  0.2106 -0.0935  0.2128
 4367SOL    MW417242   2.622   3.339   2.875  0.1360 -0.2755 -0.1256
 4368SOL     OW17243   4.315   1.985   1.819 -0.2211  0.5789 -0.2131
 4368SOL    HW217244   4.306   1.942   1.734  2.1163  0.0746 -0.2699
 4368SOL    HW317245   4.225   1.992   1.852 -0.9469 -1.6653 -1.5138
 4368SOL    MW417246   4.302   1.980   1.812  0.1536 -0.2413 -0.2866
 4369SOL     OW17247   2.299   1.842   1.362  0.5536 -0.2482  0.0664
 4369SOL    HW217248   2.323   1.929   1.393 -1.0393 -0.3619  1.8244
 4369SOL    HW317249   2.338   1.782   1.426  0.0668 -0.7097 -0.0582
 4369SOL    MW417250   2.307   1.845   1.375 -0.4629  0.0434 -0.1430
 4370SOL     OW17251   3.020   3.569   4.764  0.3315 -0.8058 -0.1972
 4370SOL    HW217252   2.977   3.489   4.734 -0.6594 -0.1086 -0.6834
 4370SOL    HW317253   2.987   3.638   4.706  3.0958 -0.4036 -1.4451
 4370SOL    MW417254   3.010   3.568   4.753 -0.3112 -0.2196 -0.0897
 4371SOL     OW17255   3.823   6.402   2.958 -0.7354  0.1200 -0.0389
 4371SOL    HW217256   3.913   6.369   2.957 -0.7388  0.1037  0.2102
 4371SOL    HW317257   3.805   6.424   2.866 -0.7032 -0.4751 -0.1899
 4371SOL    MW417258   3.833   6.401   2.945  0.3353  0.6303 -0.6216
 4372SOL     OW17259   3.659   2.055   1.298 -0.6349 -0.0449  0.0982
 4372SOL    HW217260   3.639   2.050   1.391 -0.0978 -0.8742  0.1820
 4372SOL    HW317261   3.705   1.973   1.279 -0.4867  0.2413 -0.8318
 4372SOL    MW417262   3.663   2.043   1.308 -0.8589  0.3025  0.6864
 4373SOL     OW17263   5.753   6.354   1.680 -0.5232 -0.1549  0.6440
 4373SOL    HW217264   5.822   6.291   1.655  0.0865 -0.1495  2.2211
 4373SOL    HW317265   5.764   6.426   1.618  2.3476  0.8279  2.1063
 4373SOL    MW417266   5.764   6.355   1.668  0.3409 -0.5004  0.1158
 4374SOL     OW17267   0.681   5.129   3.856  0.7945  0.0442 -0.5362
 4374SOL    HW217268   0.745   5.126   3.785  2.2388 -2.2806  0.7123
 4374SOL    HW317269   0.596   5.126   3.812  1.6344 -1.5871 -2.2139
 4374SOL    MW417270   0.678   5.128   3.841  0.0611  0.4302  0.1959
 4375SOL     OW17271   2.608   0.517   4.648  0.5054 -0.4085 -0.0321
 4375SOL    HW217272   2.517   0.503   4.671 -0.2191 -1.0234 -2.9125
 4375SOL    HW317273   2.642   0.430   4.628  1.3145 -0.0290 -0.3963
 4375SOL    MW417274   2.601   0.504   4.648 -0.2088 -0.0037 -0.1771
 4376SOL     OW17275   5.848   0.603   4.137  0.2726 -0.4015 -0.0359
 4376SOL    HW217276   5.787   0.537   4.103 -0.5639  0.9324 -1.2758
 4376SOL    HW317277   5.795   0.654   4.198  0.5833 -0.2047  0.0666
 4376SOL    MW417278   5.833   0.601   4.140  0.3307  0.0351  0.0383
 4377SOL     OW17279   0.573   0.074   1.166 -0.0032 -0.2561 -0.0988
 4377SOL    HW217280   0.502   0.138   1.163  0.0118 -0.2580 -0.7345
 4377SOL    HW317281   0.554   0.015   1.092 -0.0114 -0.9727  0.4659
 4377SOL    MW417282   0.561   0.075   1.156 -0.2814 -0.4600  0.1531
 4378SOL     OW17283   1.819   4.773   4.374  0.3598  0.3291  0.2327
 4378SOL    HW217284   1.795   4.856   4.333 -2.4256 -0.2104  0.5785
 4378SOL    HW317285   1.804   4.707   4.306  1.6178  0.0057  0.2554
 4378SOL    MW417286   1.814   4.775   4.359  0.0484 -0.0637  0.0200
 4379SOL     OW17287   4.765   3.704   4.727 -0.1195 -0.4000 -0.1002
 4379SOL    HW217288   4.785   3.634   4.664 -0.7369  1.8370 -3.0002
 4379SOL    HW317289   4.670   3.715   4.721  0.1881  2.2480 -1.6742
 4379SOL    MW417290   4.755   3.696   4.718  0.2001  0.0500 -0.1735
 4380SOL     OW17291   2.882   2.728   4.608 -0.3696 -0.6938 -0.3111
 4380SOL    HW217292   2.813   2.702   4.546  0.3820  2.3502 -2.6476
 4380SOL    HW317293   2.836   2.776   4.676 -0.7287  0.7242 -1.4969
 4380SOL    MW417294   2.867   2.731   4.609 -0.2800  0.4480 -0.1689
 4381SOL     OW17295   5.190   0.757   0.889  0.2688  0.2514  0.1641
 4381SOL    HW217296   5.111   0.788   0.934  0.1267 -1.6315  1.3774
 4381SOL    HW317297   5.258   0.820   0.913 -0.9862  2.4056 -1.6155
 4381SOL    MW417298   5.188   0.769   0.898  0.0751  0.3327  0.0885
 4382SOL     OW17299   0.140   5.464   0.190 -0.0633 -0.0569  0.7735
 4382SOL    HW217300   0.206   5.453   0.259 -0.0638 -2.6399  0.4821
 4382SOL    HW317301   0.071   5.402   0.213 -0.9564  0.3990 -0.5479
 4382SOL    MW417302   0.140   5.454   0.202 -1.0671  0.3169 -0.8461
 4383SOL     OW17303   5.113   4.773   2.254  0.1984  0.3742 -0.2067
 4383SOL    HW217304   5.050   4.826   2.205  0.8998  1.6336  0.2107
 4383SOL    HW317305   5.060   4.704   2.295 -0.9003  1.3402  0.0489
 4383SOL    MW417306   5.098   4.771   2.253 -0.4304 -0.4804 -0.5390
 4384SOL     OW17307   3.659   3.843   4.573  0.7052  0.4434  0.4700
 4384SOL    HW217308   3.671   3.910   4.506  1.1043  1.6036  1.6752
 4384SOL    HW317309   3.731   3.857   4.634  0.8335 -1.1337  0.7258
 4384SOL    MW417310   3.670   3.854   4.572  0.5420  0.2029  0.0202
 4385SOL     OW17311   4.336   0.975   4.851  0.0571  0.2625 -0.0721
 4385SOL    HW217312   4.420   0.994   4.893 -0.3828  0.2415  0.8197
 4385SOL    HW317313   4.322   0.882   4.865 -0.2925  0.3400  0.1120
 4385SOL    MW417314   4.345   0.965   4.858 -0.1360  0.4675 -0.1170
 4386SOL     OW17315   4.439   1.128   0.236 -0.2390  0.4868 -0.2422
 4386SOL    HW217316   4.373   1.101   0.300  0.9767 -0.3013  0.7179
 4386SOL    HW317317   4.416   1.219   0.215 -3.0856 -0.4815 -1.8304
 4386SOL    MW417318   4.427   1.137   0.242  0.0705  0.1353 -0.2947
 4387SOL     OW17319   1.927   3.797   3.818 -0.4012 -0.5918 -0.1830
 4387SOL    HW217320   2.000   3.755   3.865 -0.9805  0.9795  2.3340
 4387SOL    HW317321   1.857   3.801   3.883 -1.4429  1.3276 -1.3507
 4387SOL    MW417322   1.927   3.792   3.833  0.4168  0.2258 -0.4989
 4388SOL     OW17323   5.435   4.393   3.037  0.3825 -0.2220 -0.1364
 4388SOL    HW217324   5.438   4.299   3.055 -0.5199 -0.3749 -0.7318
 4388SOL    HW317325   5.440   4.434   3.124 -1.3995 -0.8723  0.3053
 4388SOL    MW417326   5.436   4.386   3.051 -0.9003  0.1843 -0.0665
 4389SOL     OW17327   1.688   4.519   4.750  0.7920  0.4366 -0.4212
 4389SOL    HW217328   1.614   4.488   4.802  0.8820  1.5276  0.3967
 4389SOL    HW317329   1.765   4.495   4.800  1.0739 -1.4356 -1.6727
 4389SOL    MW417330   1.688   4.512   4.763 -0.3029 -0.0179  0.1897
 4390SOL     OW17331   1.796   4.822   5.700  0.1154 -0.1102 -0.0102
 4390SOL    HW217332   1.795   4.852   5.791 -0.8272  1.3495 -0.4582
 4390SOL    HW317333   1.813   4.902   5.650 -1.1650 -0.5671 -1.2083
 4390SOL    MW417334   1.798   4.837   5.706 -0.0078 -0.0236 -0.0569
 4391SOL     OW17335   1.568   0.889   6.311  0.5022  0.4032  0.3664
 4391SOL    HW217336   1.562   0.948   6.386 -0.2569  0.4502  0.2749
 4391SOL    HW317337   1.560   0.801   6.349  1.4569  0.3541  0.4825
 4391SOL    MW417338   1.566   0.885   6.326  0.0111  0.5928 -0.7074
 4392SOL     OW17339   3.971   2.997   4.090  0.1080 -0.2382 -0.0396
 4392SOL    HW217340   3.918   2.974   4.166  0.6937 -2.2685 -0.1698
 4392SOL    HW317341   4.052   2.947   4.102  1.1061  1.0972 -0.9245
 4392SOL    MW417342   3.975   2.987   4.102  0.0521  1.2161 -0.5530
 4393SOL     OW17343   1.535   4.411   2.813 -0.5069  0.2793 -0.5428
 4393SOL    HW217344   1.619   4.369   2.795  0.1286  0.7309  1.2197
 4393SOL    HW317345   1.543   4.498   2.774 -0.0844  0.3905 -0.2121
 4393SOL    MW417346   1.547   4.417   2.805 -0.3732  0.0321  0.2875
 4394SOL     OW17347   0.077   4.320   3.433  0.1118  0.4001  0.1736
 4394SOL    HW217348   0.159   4.297   3.477 -0.7293  1.2135  2.2620
 4394SOL    HW317349   0.071   4.415   3.443  0.0417  0.6794 -2.0539
 4394SOL    MW417350   0.087   4.329   3.440  0.7348  0.3803  0.2696
 4395SOL     OW17351   1.931   4.463   1.119 -0.6336 -0.1500 -0.0497
 4395SOL    HW217352   1.989   4.446   1.193 -0.4919  3.5878  0.9459
 4395SOL    HW317353   1.903   4.377   1.089  3.2036 -2.0311  1.1515
 4395SOL    MW417354   1.935   4.450   1.125 -0.0179 -0.3143  0.3443
 4396SOL     OW17355   3.191   5.496   5.756  0.0751  0.3109  0.1583
 4396SOL    HW217356   3.225   5.450   5.680  0.2337 -1.6743  1.3543
 4396SOL    HW317357   3.127   5.436   5.794  0.5833  0.8730  2.0322
 4396SOL    MW417358   3.187   5.482   5.751  0.2529  0.0588  0.1439
 4397SOL     OW17359   1.344   1.841   5.555  0.0906  0.3533 -0.4351
 4397SOL    HW217360   1.264   1.825   5.505  0.6346  0.2761 -1.3162
 4397SOL    HW317361   1.379   1.922   5.518  0.4337  0.3738 -0.0754
 4397SOL    MW417362   1.338   1.850   5.543  0.1466  0.7209 -0.2484
 4398SOL     OW17363   2.424   0.889   3.654  0.0978 -0.4782 -0.0275
 4398SOL    HW217364   2.381   0.810   3.688 -1.1144  0.0167 -0.3677
 4398SOL    HW317365   2.504   0.897   3.706  0.3176 -2.0165 -0.0933
 4398SOL    MW417366   2.428   0.880   3.666  0.2546  0.1785  0.3203
 4399SOL     OW17367   6.231   5.744   0.131 -0.1368 -0.2546  0.0321
 4399SOL    HW217368   6.240   5.712   0.041 -0.6309  1.9461 -0.8647
 4399SOL    HW317369   6.234   5.665   0.185  3.2626 -1.4646 -1.6378
 4399SOL    MW417370   6.233   5.729   0.126 -0.2561  0.1340  1.0339
 4400SOL     OW17371   1.214   2.160   0.045  0.0891  1.0265  0.3133
 4400SOL    HW217372   1.147   2.096   0.020  1.4409  0.3166 -1.7297
 4400SOL    HW317373   1.185   2.242   0.005  0.8529  0.5061 -1.4036
 4400SOL    MW417374   1.201   2.162   0.037 -0.3725 -0.1158  0.2590
 4401SOL     OW17375   1.128   5.211   3.172 -0.5467 -0.1027  0.1223
 4401SOL    HW217376   1.172   5.297   3.177 -2.1423  0.7225  0.7044
 4401SOL    HW317377   1.077   5.206   3.253  0.0151 -1.9143  0.4087
 4401SOL    MW417378   1.127   5.222   3.184 -0.2959  0.6054 -0.0181
 4402SOL     OW17379   6.235   1.015   3.870 -0.2375 -0.0807 -0.4163
 4402SOL    HW217380   6.226   1.025   3.965 -1.5777 -1.7930 -0.3289
 4402SOL    HW317381   6.237   1.105   3.837  1.5533  0.5890  1.3076
 4402SOL    MW417382   6.234   1.028   3.878 -0.3169 -0.4106  0.7598
 4403SOL     OW17383   6.115   5.766   3.933  0.4739 -0.7283  0.0352
 4403SOL    HW217384   6.161   5.706   3.875 -0.5075 -1.4006 -0.0665
 4403SOL    HW317385   6.128   5.852   3.892  1.2104 -0.9663 -0.2516
 4403SOL    MW417386   6.123   5.770   3.920 -0.0894 -0.3826  0.1760
 4404SOL     OW17387   2.422   1.544   2.642  0.0711 -0.5849 -0.2394
 4404SOL    HW217388   2.462   1.603   2.579 -1.1235 -0.7021 -1.1403
 4404SOL    HW317389   2.495   1.515   2.697  0.5712  2.5017  0.9507
 4404SOL    MW417390   2.437   1.548   2.641 -0.0410 -0.1986 -0.5772
 4405SOL     OW17391   2.333   2.733   5.012 -0.4731 -0.4204 -0.0407
 4405SOL    HW217392   2.283   2.651   5.021 -1.0259 -0.1641 -0.7403
 4405SOL    HW317393   2.284   2.796   5.064 -1.1624 -0.0517 -1.1069
 4405SOL    MW417394   2.320   2.730   5.020  0.7211 -0.1484 -0.2972
 4406SOL     OW17395   5.841   4.900   5.503 -0.4769  0.3175 -0.0950
 4406SOL    HW217396   5.852   4.863   5.415  0.7517  1.0104 -0.2575
 4406SOL    HW317397   5.871   4.830   5.561 -0.8443  0.0265 -0.2536
 4406SOL    MW417398   5.847   4.886   5.499  0.3931 -0.1162  0.3803
 4407SOL     OW17399   0.044   1.820   0.213  0.0843 -0.0589  0.2622
 4407SOL    HW217400   0.101   1.866   0.274  1.2560 -1.6459  0.4464
 4407SOL    HW317401   0.104   1.773   0.155 -1.0328 -0.2561 -0.7832
 4407SOL    MW417402   0.060   1.820   0.213 -0.0057  0.0818 -0.0011
 4408SOL     OW17403   3.728   2.433   4.315  0.1074  0.5223 -0.6837
 4408SOL    HW217404   3.683   2.387   4.386  0.5608  0.2913 -0.5436
 4408SOL    HW317405   3.805   2.471   4.356 -0.4223  1.6806 -0.7351
 4408SOL    MW417406   3.732   2.432   4.330  0.2307  0.2070 -0.1443
 4409SOL     OW17407   3.200   5.262   4.430  0.0181 -0.1180  0.1069
 4409SOL    HW217408   3.160   5.178   4.404  0.1607 -0.3428  0.6045
 4409SOL    HW317409   3.171   5.275   4.520 -1.8837  1.4922 -0.6621
 4409SOL    MW417410   3.191   5.252   4.438  0.3829  0.1278 -0.6952
 4410SOL     OW17411   5.969   3.840   5.790  0.7394  0.3249  0.1924
 4410SOL    HW217412   5.994   3.749   5.809  0.4755 -0.0790 -1.2717
 4410SOL    HW317413   5.994   3.853   5.699  0.2056  1.5290  0.2055
 4410SOL    MW417414   5.976   3.830   5.781  0.3354 -0.0506  0.4817
 4411SOL     OW17415   2.797   1.289   0.628  0.4814 -0.5013 -0.3024
 4411SOL    HW217416   2.882   1.332   0.619  0.8155 -0.9938  0.4507
 4411SOL    HW317417   2.817   1.198   0.649 -0.2164 -1.0965 -1.9990
 4411SOL    MW417418   2.811   1.283   0.630 -0.0261 -0.0445 -0.2988
 4412SOL     OW17419   1.161   3.772   0.694 -0.1975 -0.1040 -0.0457
 4412SOL    HW217420   1.213   3.692   0.692  0.3221  0.2039  0.6837
 4412SOL    HW317421   1.152   3.793   0.787  1.0414  1.5328 -0.2256
 4412SOL    MW417422   1.167   3.765   0.706 -0.1127 -0.1627  0.4438
 4413SOL     OW17423   5.453   1.692   1.866  0.0060  0.3188  0.5943
 4413SOL    HW217424   5.416   1.779   1.853 -0.0361  0.2542  0.2986
 4413SOL    HW317425   5.525   1.706   1.928  0.6818  0.7274 -0.2788
 4413SOL    MW417426   5.458   1.705   1.873 -0.0286 -0.3346  0.1638
 4414SOL     OW17427   2.606   1.874   5.104  0.0303 -0.5346  0.2053
 4414SOL    HW217428   2.656   1.910   5.177 -0.8849 -0.2765  0.7165
 4414SOL    HW317429   2.517   1.864   5.137  0.2739 -3.7553  0.2727
 4414SOL    MW417430   2.601   1.877   5.118 -0.1984  0.3693 -0.4039
 4415SOL     OW17431   2.859   6.227   1.838  0.0702 -0.9808 -0.2187
 4415SOL    HW217432   2.886   6.318   1.844 -0.5365 -0.7234 -1.0616
 4415SOL    HW317433   2.921   6.187   1.776 -0.5284 -0.7611 -0.9843
 4415SOL    MW417434   2.870   6.233   1.830 -0.3391 -0.3083 -0.8430
 4416SOL     OW17435   3.057   2.948   2.538  0.1784 -0.0029 -0.6274
 4416SOL    HW217436   3.068   2.856   2.517 -2.2599 -0.8957  1.5680
 4416SOL    HW317437   3.113   2.962   2.614 -1.7955 -0.5783  1.0099
 4416SOL    MW417438   3.066   2.938   2.545  0.7933 -1.1590 -0.4507
 4417SOL     OW17439   4.878   2.413   2.247 -0.2353 -0.1425 -0.0903
 4417SOL    HW217440   4.942   2.422   2.318 -0.5001 -1.3779  0.3341
 4417SOL    HW317441   4.859   2.503   2.220  1.0666  0.2876  0.3175
 4417SOL    MW417442   4.884   2.426   2.253  0.0685 -0.2136 -0.6021
 4418SOL     OW17443   1.231   5.103   4.426  0.1434 -0.2378 -0.5116
 4418SOL    HW217444   1.302   5.039   4.429 -0.1183 -0.5473 -0.9255
 4418SOL    HW317445   1.224   5.135   4.516  1.3480  0.3823 -0.6083
 4418SOL    MW417446   1.240   5.099   4.438 -0.1925 -0.3101  0.2752
 4419SOL     OW17447   4.014   5.736   3.236 -0.7064 -0.5341 -0.1291
 4419SOL    HW217448   4.064   5.817   3.233  1.1606 -1.6442 -0.5005
 4419SOL    HW317449   4.012   5.706   3.145 -0.2374 -1.5499  0.1846
 4419SOL    MW417450   4.020   5.743   3.224 -0.0377 -0.4058  0.3838
 4420SOL     OW17451   1.033   1.778   2.145  0.1106 -0.3959  0.2129
 4420SOL    HW217452   1.116   1.758   2.102  0.6731 -1.0853  1.5664
 4420SOL    HW317453   0.997   1.693   2.169 -1.5009 -0.1653 -1.2337
 4420SOL    MW417454   1.039   1.764   2.143 -0.2451  0.1307 -0.2170
 4421SOL     OW17455   1.749   0.494   3.695 -0.2090 -0.5948  0.0298
 4421SOL    HW217456   1.808   0.438   3.645  2.4314 -1.7199  3.9792
 4421SOL    HW317457   1.791   0.580   3.695 -2.0790  0.4713 -2.4157
 4421SOL    MW417458   1.762   0.498   3.688 -0.2646  0.4608  0.2642
 4422SOL     OW17459   2.342   3.288   3.384  0.3718  0.4305 -0.3822
 4422SOL    HW217460   2.325   3.377   3.413  0.2850 -0.1525  1.4875
 4422SOL    HW317461   2.437   3.279   3.390  0.4167  0.5077 -0.9380
 4422SOL    MW417462   2.352   3.299   3.388 -0.3668  0.2988 -0.4126
 4423SOL     OW17463   0.423   4.016   2.766 -0.1535  0.2757 -0.7143
 4423SOL    HW217464   0.409   3.929   2.802 -3.1692  0.0889 -2.0267
 4423SOL    HW317465   0.436   4.002   2.672  0.2591  1.1932 -0.8147
 4423SOL    MW417466   0.423   4.003   2.758 -0.2306 -0.0814 -0.1147
 4424SOL     OW17467   2.546   3.490   5.811 -0.1446  0.8367 -0.0841
 4424SOL    HW217468   2.495   3.565   5.782 -0.9286 -0.2035 -1.5791
 4424SOL    HW317469   2.588   3.458   5.731 -1.1563 -1.2728  0.1476
 4424SOL    MW417470   2.545   3.495   5.796 -0.2772 -0.4042 -0.0264
 4425SOL     OW17471   1.390   5.743   4.713  0.2961  0.1942  0.1090
 4425SOL    HW217472   1.345   5.801   4.773 -0.1751  2.3792 -2.1770
 4425SOL    HW317473   1.387   5.657   4.754  1.1078  1.7329  3.7222
 4425SOL    MW417474   1.384   5.739   4.726  0.8660  0.7232  0.6977
 4426SOL     OW17475   0.086   4.250   1.754  0.3011 -0.0327 -0.3503
 4426SOL    HW217476  -0.004   4.238   1.784 -0.2865  3.5202 -0.3290
 4426SOL    HW317477   0.079   4.252   1.659  0.6399 -1.1834 -0.4201
 4426SOL    MW417478   0.073   4.249   1.746 -0.8017  0.6822  0.0126
 4427SOL     OW17479   2.103   0.894   3.529 -0.6113 -0.3228 -0.0504
 4427SOL    HW217480   2.022   0.933   3.562 -0.6595  0.8733 -1.4838
 4427SOL    HW317481   2.092   0.800   3.543 -1.3466 -0.0043  1.6589
 4427SOL    MW417482   2.091   0.887   3.535  0.1044  0.3418  1.0397
 4428SOL     OW17483   6.162   3.592   2.949  0.2884 -0.7518 -0.3395
 4428SOL    HW217484   6.215   3.532   3.001  0.4627 -2.2764 -2.1383
 4428SOL    HW317485   6.193   3.579   2.859 -0.5613  1.1318 -0.9641
 4428SOL    MW417486   6.173   3.582   2.944 -0.6288  0.6968 -0.0822
 4429SOL     OW17487   4.654   3.283   1.163  0.5196 -0.6092 -0.2797
 4429SOL    HW217488   4.600   3.306   1.240 -0.2526 -1.8087 -0.4353
 4429SOL    HW317489   4.607   3.323   1.089 -1.1283 -2.9734 -0.6192
 4429SOL    MW417490   4.640   3.292   1.164  0.3405 -0.0999  0.0665
 4430SOL     OW17491   5.656   3.709   2.907  0.4032  0.5005  0.1383
 4430SOL    HW217492   5.590   3.648   2.873  0.0566  0.9389  0.0114
 4430SOL    HW317493   5.608   3.763   2.970  0.7498  0.5223  0.3837
 4430SOL    MW417494   5.641   3.708   2.911 -0.0380  0.2844 -0.2566
 4431SOL     OW17495   5.864   0.597   5.759 -0.2837 -0.4282 -0.0312
 4431SOL    HW217496   5.930   0.533   5.735 -0.3970 -0.4614 -0.2591
 4431SOL    HW317497   5.909   0.682   5.754 -0.1540 -0.4818  0.2004
 4431SOL    MW417498   5.878   0.600   5.755 -0.3278  0.4305 -0.1295
 4432SOL     OW17499   1.242   3.725   1.585 -0.1780 -0.1581  0.2480
 4432SOL    HW217500   1.305   3.707   1.656 -0.1679 -1.5349 -0.0857
 4432SOL    HW317501   1.157   3.722   1.628 -0.1326 -0.3011  0.3302
 4432SOL    MW417502   1.239   3.722   1.600 -0.1283 -0.0465 -0.3780
 4433SOL     OW17503   0.320   0.289   4.117  0.4506  0.1451  0.0830
 4433SOL    HW217504   0.277   0.261   4.036  2.3256 -1.2576 -0.4939
 4433SOL    HW317505   0.400   0.237   4.122  1.1255  1.2319  2.1133
 4433SOL    MW417506   0.325   0.279   4.107 -0.0450  0.2805  0.1337
 4434SOL     OW17507   2.953   0.893   0.240 -0.1964  0.3523 -0.1441
 4434SOL    HW217508   2.942   0.918   0.331 -2.4753 -0.0682 -0.2430
 4434SOL    HW317509   3.016   0.821   0.241  1.4056  1.6974  0.8213
 4434SOL    MW417510   2.960   0.887   0.252  0.0006 -0.5159 -0.3797
 4435SOL     OW17511   1.083   5.651   1.730  0.0458  0.0820 -0.3725
 4435SOL    HW217512   1.038   5.729   1.761  0.1928  0.3107 -0.7358
 4435SOL    HW317513   1.036   5.625   1.651  0.0737 -0.1271 -0.3215
 4435SOL    MW417514   1.071   5.658   1.724  0.4636  0.3723  0.6813
 4436SOL     OW17515   2.515   3.116   5.412 -0.8790 -0.8191  0.4262
 4436SOL    HW217516   2.604   3.151   5.421  0.0904 -3.5123  2.6050
 4436SOL    HW317517   2.518   3.060   5.335 -0.8733 -0.4207  0.1351
 4436SOL    MW417518   2.527   3.114   5.403  0.8205  0.1012 -0.0798
 4437SOL     OW17519   0.588   3.713   4.682 -0.5132 -0.1586 -0.4930
 4437SOL    HW217520   0.563   3.661   4.758  0.1785  2.0139  1.3000
 4437SOL    HW317521   0.675   3.747   4.703 -0.4272  0.7595 -2.1313
 4437SOL    MW417522   0.596   3.710   4.695 -0.2037 -0.0936  0.1155
 4438SOL     OW17523   1.657   1.300   0.159  0.0018  0.2166 -0.2235
 4438SOL    HW217524   1.733   1.327   0.107 -0.0825 -0.5483 -0.7708
 4438SOL    HW317525   1.604   1.379   0.168  0.9545  0.8116  0.3430
 4438SOL    MW417526   1.660   1.314   0.153  0.2356  0.0232 -0.0547
 4439SOL     OW17527   3.612   4.420   5.231 -0.0802 -0.2525  0.2205
 4439SOL    HW217528   3.566   4.504   5.225  0.1103 -0.0921  0.8704
 4439SOL    HW317529   3.648   4.419   5.320  0.0978 -0.9316  0.1471
 4439SOL    MW417530   3.610   4.431   5.242  0.1713 -0.5786 -0.0625
 4440SOL     OW17531   5.084   5.109   5.048  0.1704 -0.0721  0.8360
 4440SOL    HW217532   5.175   5.109   5.078  0.0376  1.0152  1.2701
 4440SOL    HW317533   5.051   5.196   5.071 -1.1241 -0.6206  1.1172
 4440SOL    MW417534   5.092   5.121   5.055  0.1295  0.0537  0.3128
 4441SOL     OW17535   6.037   2.008   3.401  0.5504 -0.5574 -0.2806
 4441SOL    HW217536   5.999   1.946   3.339 -1.1255  1.8298 -1.8242
 4441SOL    HW317537   6.043   1.960   3.483 -1.0434 -2.6063 -1.2823
 4441SOL    MW417538   6.033   1.993   3.403 -0.5408 -0.0282 -0.2964
 4442SOL     OW17539   1.916   4.731   5.961  0.9172 -0.6940  0.5565
 4442SOL    HW217540   1.864   4.679   6.021  1.3873 -0.3864  1.2418
 4442SOL    HW317541   2.007   4.706   5.979  1.0692 -0.5787 -0.0079
 4442SOL    MW417542   1.922   4.721   5.971  0.3203 -0.4615 -0.0202
 4443SOL     OW17543   2.895   6.419   3.030 -0.0580  0.5405  1.1147
 4443SOL    HW217544   2.941   6.363   3.093  0.1636 -0.6693 -0.0804
 4443SOL    HW317545   2.936   6.504   3.040  2.1044 -0.3674  0.4796
 4443SOL    MW417546   2.906   6.422   3.040  0.3976 -0.2809 -0.0977
 4444SOL     OW17547   0.638   1.818   5.234 -0.1381  0.1192 -0.1969
 4444SOL    HW217548   0.664   1.728   5.254 -1.4612 -0.6388 -1.6797
 4444SOL    HW317549   0.570   1.838   5.299 -1.8215 -1.0044 -1.5317
 4444SOL    MW417550   0.633   1.809   5.245  0.2925  0.3620 -0.4776
 4445SOL     OW17551   1.349   1.290   5.454 -0.5329 -0.0578  0.0904
 4445SOL    HW217552   1.320   1.336   5.375 -0.0964 -0.2989 -0.2151
 4445SOL    HW317553   1.414   1.228   5.423  0.6037  0.7427  0.8216
 4445SOL    MW417554   1.353   1.288   5.439  0.0699  0.3480  0.6400
 4446SOL     OW17555   1.469   6.012   4.912  0.0724  0.4500 -0.3307
 4446SOL    HW217556   1.520   5.941   4.873  1.2125  0.6133  0.7952
 4446SOL    HW317557   1.533   6.081   4.929 -1.0352  1.8229 -1.5111
 4446SOL    MW417558   1.484   6.012   4.909  0.1390 -0.5233 -0.1971
 4447SOL     OW17559   0.025   1.932   3.940 -0.2039  0.1830  0.0903
 4447SOL    HW217560   0.044   1.922   4.033  0.0949 -0.3520 -0.0218
 4447SOL    HW317561   0.023   2.026   3.925  0.7630  0.2610  0.4285
 4447SOL    MW417562   0.027   1.943   3.950 -0.1671  0.2548  0.9733
 4448SOL     OW17563   1.736   1.831   3.334  0.5898  0.3331 -0.0683
 4448SOL    HW217564   1.697   1.901   3.281 -0.0228  0.1139  0.0902
 4448SOL    HW317565   1.662   1.774   3.357  1.1783 -0.7855 -0.8225
 4448SOL    MW417566   1.721   1.833   3.330  0.2114 -0.4237 -0.3577
 4449SOL     OW17567   1.595   2.237   2.845 -0.3290 -0.0068 -0.8720
 4449SOL    HW217568   1.581   2.257   2.937 -0.2669  0.8314 -1.0419
 4449SOL    HW317569   1.582   2.320   2.799  1.8311  0.0782 -1.4074
 4449SOL    MW417570   1.591   2.251   2.851 -0.2037  0.4721 -0.1712
 4450SOL     OW17571   2.851   5.132   5.765 -0.2070  0.1838 -0.4187
 4450SOL    HW217572   2.761   5.152   5.789  0.3147  3.3917 -0.6881
 4450SOL    HW317573   2.890   5.096   5.845 -1.8156 -1.9385 -0.5032
 4450SOL    MW417574   2.844   5.130   5.779  0.2284 -0.5454  0.0556
 4451SOL     OW17575   0.968   1.386   1.885  0.6596 -0.0757  0.0928
 4451SOL    HW217576   0.952   1.446   1.958 -2.3251 -1.0396  0.3628
 4451SOL    HW317577   0.946   1.300   1.919 -0.0265 -0.6628 -1.6922
 4451SOL    MW417578   0.963   1.383   1.899  0.4993  0.1620  0.2810
 4452SOL     OW17579   0.647   1.549   4.066  0.7734 -0.3633 -0.0331
 4452SOL    HW217580   0.625   1.507   4.149 -0.0307  1.1083  0.5275
 4452SOL    HW317581   0.736   1.581   4.079  0.6105 -0.0424  0.3023
 4452SOL    MW417582   0.656   1.548   4.078  0.1168 -0.0343  0.1006
 4453SOL     OW17583   1.442   1.859   0.195 -0.2236 -0.1014 -0.1173
 4453SOL    HW217584   1.525   1.834   0.235 -0.5583 -1.0342  0.0084
 4453SOL    HW317585   1.456   1.850   0.101  0.2067  1.0009 -0.1828
 4453SOL    MW417586   1.455   1.855   0.188 -0.3092 -0.4642 -0.0175
 4454SOL     OW17587   6.069   5.321   1.227  0.6611 -0.0960 -0.1100
 4454SOL    HW217588   6.117   5.275   1.296 -0.9516 -1.0180  0.4583
 4454SOL    HW317589   5.978   5.322   1.258  0.3075  1.6527 -1.1028
 4454SOL    MW417590   6.063   5.315   1.240  0.3551 -0.6383  0.5416
 4455SOL     OW17591   0.442   5.247   3.412  0.3147  0.6572 -0.3162
 4455SOL    HW217592   0.361   5.299   3.408 -0.5635 -0.5823  0.6175
 4455SOL    HW317593   0.412   5.156   3.409  1.7321  0.1816 -0.5977
 4455SOL    MW417594   0.427   5.242   3.411 -0.5313 -0.4693 -0.1390
 4456SOL     OW17595   4.669   1.724   2.930  0.0338 -0.3842  0.9088
 4456SOL    HW217596   4.634   1.745   2.843 -0.5933 -1.3628  0.9073
 4456SOL    HW317597   4.678   1.809   2.973 -1.7945 -0.0238  0.6773
 4456SOL    MW417598   4.665   1.738   2.924  0.2515 -0.4571  0.5912
 4457SOL     OW17599   4.249   5.321   1.832  0.3386  0.0018  0.5847
 4457SOL    HW217600   4.258   5.230   1.857  1.2012  0.0286  0.4158
 4457SOL    HW317601   4.318   5.367   1.880 -0.9599  0.8109  1.7607
 4457SOL    MW417602   4.259   5.315   1.841  0.6425 -0.5554  0.1983
 4458SOL     OW17603   4.877   1.949   1.704 -0.1513  0.0388 -0.6297
 4458SOL    HW217604   4.861   1.896   1.782 -0.4229 -3.3323 -2.7725
 4458SOL    HW317605   4.835   2.032   1.723 -1.8230 -1.2653  2.1070
 4458SOL    MW417606   4.869   1.953   1.717  0.3116 -0.1787 -0.5255
 4459SOL     OW17607   4.318   1.834   2.095 -0.4991 -0.2830  0.0002
 4459SOL    HW217608   4.404   1.800   2.119 -2.0472 -3.7964  1.2556
 4459SOL    HW317609   4.318   1.831   1.999  1.2636  1.4391 -0.1288
 4459SOL    MW417610   4.329   1.829   2.085 -0.0307 -0.3976 -0.2480
 4460SOL     OW17611   1.919   6.094   5.872 -0.1837 -0.7054  0.6832
 4460SOL    HW217612   1.882   6.165   5.925  0.6102 -0.5937  1.0918
 4460SOL    HW317613   2.008   6.122   5.852 -0.2020 -1.1271 -0.0190
 4460SOL    MW417614   1.926   6.107   5.876 -0.2685 -0.1325  0.2476
 4461SOL     OW17615   0.183   1.288   4.847  0.6025  0.5748  0.3085
 4461SOL    HW217616   0.109   1.307   4.905  1.4416  0.1272  1.5927
 4461SOL    HW317617   0.161   1.204   4.807 -0.0145  0.9105 -0.0660
 4461SOL    MW417618   0.171   1.279   4.850 -0.5085  0.0308  0.3535
 4462SOL     OW17619   5.828   3.735   1.553  0.5789  0.5074  0.4182
 4462SOL    HW217620   5.883   3.657   1.554 -0.7668 -0.5213  2.5668
 4462SOL    HW317621   5.834   3.770   1.642 -1.6177  0.7507  0.5287
 4462SOL    MW417622   5.836   3.729   1.565 -0.1475 -0.2027  0.4895
 4463SOL     OW17623   1.397   2.493   2.139  0.4794 -0.4616 -0.3675
 4463SOL    HW217624   1.313   2.518   2.100  0.3770 -1.4794 -0.8363
 4463SOL    HW317625   1.386   2.401   2.163  0.7989 -0.0545  1.4248
 4463SOL    MW417626   1.385   2.484   2.137 -0.0484 -0.0157  0.2182
 4464SOL     OW17627   1.459   5.585   6.308  0.0208 -0.1076 -0.1481
 4464SOL    HW217628   1.552   5.569   6.292  0.0795 -1.3906  1.2190
 4464SOL    HW317629   1.426   5.501   6.341 -0.8335  1.2512  2.7364
 4464SOL    MW417630   1.467   5.572   6.310  0.3234 -1.1313 -0.1747
 4465SOL     OW17631   3.993   5.855   6.291  0.5046  0.0781 -0.6897
 4465SOL    HW217632   3.903   5.832   6.311 -0.1318  0.8341 -2.4346
 4465SOL    HW317633   4.032   5.775   6.255 -0.0905  0.2554 -1.7701
 4465SOL    MW417634   3.987   5.842   6.289 -0.0917 -0.3962 -0.2400
 4466SOL     OW17635   0.034   5.069   0.471 -0.3355 -0.3704 -0.3817
 4466SOL    HW217636   0.104   5.031   0.524 -0.8699 -1.9485 -0.7514
 4466SOL    HW317637   0.040   5.163   0.486  0.6852 -0.6411  1.0272
 4466SOL    MW417638   0.044   5.076   0.480 -0.3879 -0.6933  0.0303
 4467SOL     OW17639   0.635   5.763   5.423 -0.1998  0.2271  0.1386
 4467SOL    HW217640   0.625   5.684   5.476 -0.2291  0.2044  0.0987
 4467SOL    HW317641   0.567   5.822   5.455 -1.1900 -0.3395 -0.8875
 4467SOL    MW417642   0.625   5.760   5.434 -0.4796  0.6414  0.8452
 4468SOL     OW17643   1.333   6.311   4.486  0.0272  0.1567  0.2639
 4468SOL    HW217644   1.318   6.344   4.574  1.9334  0.0323  0.6833
 4468SOL    HW317645   1.321   6.387   4.429  2.4471  1.1989  1.0322
 4468SOL    MW417646   1.329   6.325   4.490  0.2155  0.1007 -0.1592
 4469SOL     OW17647   2.106   5.894   4.112 -0.4306 -0.1097 -0.2347
 4469SOL    HW217648   2.019   5.861   4.133 -0.8325 -0.2438 -1.9159
 4469SOL    HW317649   2.163   5.819   4.121 -0.5547 -0.1279  0.4528
 4469SOL    MW417650   2.102   5.880   4.116 -0.1065  0.1528  0.2178
 4470SOL     OW17651   1.331   6.371   2.116  0.1997 -0.3575 -0.1279
 4470SOL    HW217652   1.405   6.406   2.067 -0.0909 -2.2287 -2.0382
 4470SOL    HW317653   1.285   6.316   2.054 -3.4047  1.4245  0.7245
 4470SOL    MW417654   1.335   6.368   2.102 -0.4995  0.0477 -0.3472
 4471SOL     OW17655   3.199   2.480   1.841  0.9769 -0.1988  0.0719
 4471SOL    HW217656   3.129   2.449   1.898  1.5412 -1.7733 -0.0347
 4471SOL    HW317657   3.267   2.511   1.901  0.8573 -0.2348  0.2259
 4471SOL    MW417658   3.199   2.480   1.857  0.7065 -0.2083  0.4457
 4472SOL     OW17659   1.937   2.811   0.516 -0.1064  0.2818 -0.4581
 4472SOL    HW217660   1.960   2.895   0.556 -0.0497 -0.9672  2.3934
 4472SOL    HW317661   2.004   2.750   0.549 -1.7293 -1.4245 -0.1634
 4472SOL    MW417662   1.949   2.814   0.526 -0.0669  0.4201  0.5038
 4473SOL     OW17663   2.338   0.888   2.396  0.1949 -0.4029 -0.0869
 4473SOL    HW217664   2.427   0.862   2.372  1.2238  1.7112  1.2129
 4473SOL    HW317665   2.332   0.868   2.489 -0.0260  1.1519  0.2483
 4473SOL    MW417666   2.349   0.882   2.405  0.0858 -0.2348  0.3937
 4474SOL     OW17667   1.060   0.154   2.544 -0.6218  0.2376  0.3645
 4474SOL    HW217668   1.051   0.250   2.545 -0.9331  0.2128  0.2155
 4474SOL    HW317669   1.123   0.138   2.474 -2.4859  0.2109 -1.4321
 4474SOL    MW417670   1.067   0.165   2.535  0.3752 -0.3718 -0.2345
 4475SOL     OW17671   3.761   4.305   0.843  0.0937  0.0635 -0.6132
 4475SOL    HW217672   3.707   4.289   0.920  1.9375 -2.9231  0.2599
 4475SOL    HW317673   3.806   4.387   0.861 -0.8270  0.3140  0.6662
 4475SOL    MW417674   3.760   4.314   0.855 -0.2237  0.3625 -0.7841
 4476SOL     OW17675   4.186   2.337   4.460 -0.3466  0.2162  0.3800
 4476SOL    HW217676   4.228   2.260   4.499 -2.8676 -1.8998 -0.8072
 4476SOL    HW317677   4.117   2.360   4.522  0.1802  1.3835  0.5617
 4476SOL    MW417678   4.182   2.330   4.474 -0.7029 -0.2398 -0.4807
 4477SOL     OW17679   5.565   4.849   3.860 -0.1484  0.4324  0.3733
 4477SOL    HW217680   5.577   4.906   3.935 -2.9277 -0.2221  1.4099
 4477SOL    HW317681   5.496   4.890   3.809  0.3950 -0.1237 -0.8653
 4477SOL    MW417682   5.558   4.862   3.863  0.1022 -0.5039 -0.6580
 4478SOL     OW17683   4.479   3.344   3.602  0.6653 -0.0858  0.6698
 4478SOL    HW217684   4.536   3.347   3.526 -1.0015  0.1516 -0.6249
 4478SOL    HW317685   4.392   3.326   3.566 -0.1787  0.1053  2.5117
 4478SOL    MW417686   4.475   3.342   3.587  0.1231  0.2407 -0.0467
 4479SOL     OW17687   3.639   3.521   1.742 -0.3962 -0.0025 -0.1917
 4479SOL    HW217688   3.734   3.518   1.733 -0.2850 -1.2786  1.1470
 4479SOL    HW317689   3.612   3.591   1.682  1.3097 -0.0120 -1.0361
 4479SOL    MW417690   3.648   3.530   1.733  0.2918 -0.0514 -0.8885
 4480SOL     OW17691   3.617   2.396   3.152 -0.0810  0.1423  0.2587
 4480SOL    HW217692   3.665   2.339   3.091 -0.9289 -0.5560  0.2233
 4480SOL    HW317693   3.683   2.459   3.182  1.1358 -1.4134  1.0013
 4480SOL    MW417694   3.632   2.397   3.148 -0.1130  0.1647 -0.7517
 4481SOL     OW17695   2.445   5.016   4.102 -0.0336  0.4585  0.3273
 4481SOL    HW217696   2.520   5.005   4.043 -0.2843  0.1120  0.0651
 4481SOL    HW317697   2.369   5.020   4.043 -0.1414  1.8474  0.5176
 4481SOL    MW417698   2.445   5.015   4.086  0.3681 -0.2863 -0.5576
 4482SOL     OW17699   4.850   4.093   1.626 -0.2583  0.5402  0.2157
 4482SOL    HW217700   4.859   4.021   1.689 -0.3616  0.3476  0.0133
 4482SOL    HW317701   4.839   4.049   1.541  0.1852  0.7950  0.0206
 4482SOL    MW417702   4.850   4.078   1.623 -0.4369 -0.2619  0.1277
 4483SOL     OW17703   4.166   4.791   4.063 -0.1180 -0.2681 -0.2806
 4483SOL    HW217704   4.169   4.885   4.081 -1.0937 -0.2350 -0.2376
 4483SOL    HW317705   4.135   4.752   4.144  1.7890 -0.8195  0.2433
 4483SOL    MW417706   4.163   4.798   4.076  0.1091 -0.0372  0.4825
 4484SOL     OW17707   2.833   4.181   4.027  0.4511  0.0344 -0.2554
 4484SOL    HW217708   2.861   4.265   4.064  0.1601 -0.6320  1.6277
 4484SOL    HW317709   2.883   4.116   4.077 -0.2838 -0.9459 -0.7637
 4484SOL    MW417710   2.843   4.183   4.039  0.5164 -0.2799 -0.3388
 4485SOL     OW17711   1.528   2.509   2.387 -0.0164  0.0301  0.3501
 4485SOL    HW217712   1.492   2.514   2.298 -0.8601 -1.3155  0.5940
 4485SOL    HW317713   1.575   2.592   2.398 -1.9530  1.3093 -0.4571
 4485SOL    MW417714   1.529   2.521   2.376  0.1306  0.2724 -0.6489
 4486SOL     OW17715   4.707   5.837   2.571  0.9651 -0.1101 -0.0253
 4486SOL    HW217716   4.618   5.861   2.598  0.7082 -0.4418 -0.5590
 4486SOL    HW317717   4.713   5.866   2.480  0.6037 -2.1011 -0.7438
 4486SOL    MW417718   4.696   5.844   2.562 -0.7271  0.0076  0.1046
 4487SOL     OW17719   4.804   0.383   6.030  0.1197  0.1948  0.2061
 4487SOL    HW217720   4.782   0.450   5.965 -2.1752 -2.4808 -1.9788
 4487SOL    HW317721   4.898   0.367   6.016 -0.0400  0.5965 -1.5393
 4487SOL    MW417722   4.814   0.390   6.020  0.7934  0.4810  0.3931
 4488SOL     OW17723   3.796   2.509   5.169 -0.2333  0.7927 -1.1447
 4488SOL    HW217724   3.857   2.492   5.241 -2.1353  0.7793  0.5417
 4488SOL    HW317725   3.841   2.474   5.091  1.1076 -0.8857  0.2914
 4488SOL    MW417726   3.810   2.503   5.168 -0.6077  0.2643  0.1805
 4489SOL     OW17727   5.724   2.127   0.165 -0.0851 -0.4184  0.1837
 4489SOL    HW217728   5.653   2.063   0.159 -2.9014  2.5856 -1.0908
 4489SOL    HW317729   5.752   2.140   0.074  1.1488 -0.4685  0.5310
 4489SOL    MW417730   5.719   2.120   0.152 -0.0088  0.3405 -0.0154
 4490SOL     OW17731   2.516   2.268   0.844  0.0289 -0.1615 -0.8967
 4490SOL    HW217732   2.539   2.182   0.809  1.0286 -1.5861  2.8452
 4490SOL    HW317733   2.422   2.276   0.828 -0.3112 -2.4440 -0.4071
 4490SOL    MW417734   2.507   2.258   0.837 -0.3868  0.1042 -0.5697
 4491SOL     OW17735   6.030   1.103   1.885 -0.0484 -0.2027  0.3580
 4491SOL    HW217736   6.119   1.091   1.918 -0.6125 -3.4027  0.9908
 4491SOL    HW317737   5.981   1.137   1.960  0.2210 -0.3203  0.5869
 4491SOL    MW417738   6.035   1.106   1.899  0.1076  0.3500 -0.2361
 4492SOL     OW17739   4.316   3.326   1.108  0.3797  0.4175  0.0870
 4492SOL    HW217740   4.343   3.264   1.040  0.4339  0.0522  0.4400
 4492SOL    HW317741   4.229   3.356   1.079 -0.4024 -1.1123  0.7712
 4492SOL    MW417742   4.308   3.322   1.095  0.6202 -0.1714 -0.0922
 4493SOL     OW17743   2.060   2.325   0.527  0.1535 -0.2516 -0.9020
 4493SOL    HW217744   2.036   2.360   0.612  0.6297 -2.7177  0.3254
 4493SOL    HW317745   1.984   2.343   0.471 -1.3818 -1.0951  0.8204
 4493SOL    MW417746   2.047   2.332   0.531  0.0734 -0.3017  0.5920
 4494SOL     OW17747   5.246   1.506   5.618 -0.5103 -0.0104 -0.6893
 4494SOL    HW217748   5.185   1.458   5.562 -0.2445  0.4036 -1.3389
 4494SOL    HW317749   5.330   1.463   5.604 -0.6902 -0.7810  0.4430
 4494SOL    MW417750   5.249   1.494   5.609  0.5558 -0.3398  0.2031
 4495SOL     OW17751   1.060   6.223   3.452  0.1446 -0.5400  0.0434
 4495SOL    HW217752   1.063   6.244   3.359  0.9559 -0.0932  0.1617
 4495SOL    HW317753   0.972   6.246   3.480  0.2093  0.2667 -0.4035
 4495SOL    MW417754   1.049   6.229   3.444 -0.2983  0.8411  0.6319
 4496SOL     OW17755   0.264   4.275   0.067 -0.9619 -0.2351 -0.6503
 4496SOL    HW217756   0.335   4.331   0.097  0.5190 -2.8464  1.0902
 4496SOL    HW317757   0.286   4.254  -0.023 -1.0416  1.1534 -1.0164
 4496SOL    MW417758   0.276   4.280   0.059  0.8139 -0.4502  0.9310
 4497SOL     OW17759   6.329   2.943   2.796 -0.1837  0.3822 -0.4246
 4497SOL    HW217760   6.315   3.018   2.854  0.3295  0.4761 -0.4166
 4497SOL    HW317761   6.244   2.929   2.754 -0.0009  1.7475 -1.3298
 4497SOL    MW417762   6.316   2.951   2.798  0.6185 -0.0468  0.4181
 4498SOL     OW17763   3.722   2.271   3.436  0.2159  0.6558 -0.4489
 4498SOL    HW217764   3.666   2.301   3.364 -2.5594 -0.5222  1.1017
 4498SOL    HW317765   3.712   2.337   3.504  0.4235  0.2275  0.0040
 4498SOL    MW417766   3.714   2.283   3.435 -0.1513  0.4226 -0.4494
 4499SOL     OW17767   5.763   5.866   2.056  0.3031  0.1795 -0.7346
 4499SOL    HW217768   5.704   5.791   2.063 -0.7588  0.9990 -0.6604
 4499SOL    HW317769   5.732   5.915   1.980  1.1605  0.4082 -0.9530
 4499SOL    MW417770   5.751   5.863   2.047 -0.5905  0.3358 -0.0398
 4500SOL     OW17771   2.375   2.398   2.805  0.5012  0.6969 -0.0937
 4500SOL    HW217772   2.331   2.472   2.764  0.1842  0.9285  0.6474
 4500SOL    HW317773   2.406   2.432   2.889  0.5534  0.0506  0.1509
 4500SOL    MW417774   2.374   2.412   2.810  0.3842  0.5266 -0.1911
 4501SOL     OW17775   0.348   5.303   2.287 -0.2082 -0.3108 -0.2731
 4501SOL    HW217776   0.403   5.225   2.281 -0.2328 -0.3868  0.3697
 4501SOL    HW317777   0.327   5.310   2.380  0.1609  0.7099 -0.2505
 4501SOL    MW417778   0.353   5.294   2.299  0.2543 -0.3459 -0.4084
 4502SOL     OW17779   5.180   0.948   2.051  0.9674 -0.1653 -0.2332
 4502SOL    HW217780   5.108   1.011   2.051  2.2877  1.4793  1.8457
 4502SOL    HW317781   5.138   0.862   2.051 -0.8999  0.6164 -3.2627
 4502SOL    MW417782   5.165   0.945   2.051  0.4109  0.0894  0.2160
 4503SOL     OW17783   1.376   2.233   1.014  0.6533  0.6739  0.1567
 4503SOL    HW217784   1.335   2.227   0.927  3.0948 -0.0033 -1.0316
 4503SOL    HW317785   1.329   2.168   1.066 -0.7459  0.9611 -0.6740
 4503SOL    MW417786   1.364   2.224   1.009  0.3221 -0.2603 -0.0583
 4504SOL     OW17787   3.596   1.241   1.200 -0.0064  0.1877 -0.3751
 4504SOL    HW217788   3.516   1.219   1.153  0.6297  0.3301 -1.5430
 4504SOL    HW317789   3.656   1.169   1.182 -0.5789 -1.1083  2.3670
 4504SOL    MW417790   3.593   1.229   1.192  0.2179 -0.2300 -0.3130
 4505SOL     OW17791   3.363   1.293   3.127 -0.2087  0.1656  0.1140
 4505SOL    HW217792   3.401   1.280   3.040  0.5056 -0.4520  0.4973
 4505SOL    HW317793   3.387   1.383   3.150  2.3317 -0.6119  0.9089
 4505SOL    MW417794   3.371   1.303   3.119  0.3404  0.6770  0.3507
 4506SOL     OW17795   2.641   6.310   0.409  0.5588 -0.7601  0.0893
 4506SOL    HW217796   2.588   6.326   0.488  0.1374  0.3564 -0.4059
 4506SOL    HW317797   2.639   6.215   0.398 -1.6793 -0.7316 -0.1324
 4506SOL    MW417798   2.634   6.299   0.418  0.0694 -0.4563  0.9636
 4507SOL     OW17799   1.771   3.473   5.897 -0.6145 -0.3512  0.1200
 4507SOL    HW217800   1.865   3.457   5.901 -0.4954 -1.0239 -2.9493
 4507SOL    HW317801   1.736   3.434   5.977  1.9056  2.3713  2.7883
 4507SOL    MW417802   1.779   3.465   5.908  0.0904  0.2123 -0.2315
 4508SOL     OW17803   3.681   2.915   2.974 -0.2988  0.6158  1.1906
 4508SOL    HW217804   3.752   2.884   2.918 -1.9932 -1.2209 -0.1019
 4508SOL    HW317805   3.664   2.842   3.033 -1.7392  0.6040  0.7927
 4508SOL    MW417806   3.688   2.901   2.974 -0.6187 -0.0934 -0.1144
 4509SOL     OW17807   5.476   6.346   3.890  0.0692  0.2689 -0.0837
 4509SOL    HW217808   5.519   6.400   3.956  3.0736  0.7100 -2.2101
 4509SOL    HW317809   5.485   6.395   3.809 -1.0783 -1.4599 -1.3400
 4509SOL    MW417810   5.483   6.359   3.888 -0.3889  0.2064  0.1709
 4510SOL     OW17811   4.747   3.815   2.056  0.8016  0.3813  0.4358
 4510SOL    HW217812   4.673   3.764   2.022  0.4183  0.5281  1.0445
 4510SOL    HW317813   4.823   3.757   2.045  0.7150  0.4542 -0.7492
 4510SOL    MW417814   4.748   3.800   2.050 -0.0436 -0.3057 -0.2551
 4511SOL     OW17815   1.079   4.008   2.482 -0.0579  0.1962 -0.2764
 4511SOL    HW217816   1.111   4.075   2.421 -1.5625  2.4407  1.2452
 4511SOL    HW317817   1.131   4.020   2.561  0.6121 -1.4419 -0.4326
 4511SOL    MW417818   1.090   4.018   2.484 -0.4739 -0.0523 -0.1476
 4512SOL     OW17819   6.182   5.747   6.006 -0.2746  0.0168  0.1041
 4512SOL    HW217820   6.238   5.820   6.032 -0.4011  0.2978 -0.3966
 4512SOL    HW317821   6.141   5.776   5.924 -0.2406 -0.6641 -0.1579
 4512SOL    MW417822   6.184   5.761   5.998  0.4448  0.8663 -0.5040
 4513SOL     OW17823   2.481   5.838   6.317  0.3568 -0.0500 -0.3499
 4513SOL    HW217824   2.540   5.769   6.345 -0.5524  0.0011  1.9368
 4513SOL    HW317825   2.485   5.837   6.222 -0.9268 -4.4297 -0.5437
 4513SOL    MW417826   2.489   5.829   6.308  0.1290 -0.0033  0.2777
 4514SOL     OW17827   5.942   6.124   4.056  0.2819 -0.1171  0.0504
 4514SOL    HW217828   5.909   6.059   4.118  0.2708  1.6783  2.0473
 4514SOL    HW317829   6.018   6.161   4.100 -0.4720  2.1085 -0.4104
 4514SOL    MW417830   5.948   6.120   4.070 -0.5490 -0.0745  0.0743
 4515SOL     OW17831   1.109   3.108   1.764 -0.9438 -0.0091 -0.4046
 4515SOL    HW217832   1.163   3.185   1.750 -2.2050  0.7267 -1.4456
 4515SOL    HW317833   1.045   3.134   1.830  0.3402 -1.1047  1.3637
 4515SOL    MW417834   1.108   3.121   1.771  0.3574  1.0396  0.0852
 4516SOL     OW17835   4.101   0.070   6.088  0.3772 -0.2986 -0.2578
 4516SOL    HW217836   4.119  -0.007   6.035  0.4254 -0.4563 -0.0145
 4516SOL    HW317837   4.186   0.097   6.122  0.3643 -0.1206 -0.3648
 4516SOL    MW417838   4.114   0.063   6.085 -0.7907  0.4435 -0.3639
 4517SOL     OW17839   0.750   2.532   4.335  0.6959  0.0013 -0.5583
 4517SOL    HW217840   0.795   2.607   4.375  0.4243 -0.0158 -0.2241
 4517SOL    HW317841   0.658   2.546   4.355  0.4677  0.3413 -1.7294
 4517SOL    MW417842   0.744   2.544   4.343  0.8171 -0.3240  0.0129
 4518SOL     OW17843   4.284   4.869   1.694 -0.0206  0.2958  0.0332
 4518SOL    HW217844   4.263   4.939   1.632 -0.7085  1.2653  1.3025
 4518SOL    HW317845   4.256   4.789   1.649 -0.6549  0.9781 -0.8375
 4518SOL    MW417846   4.277   4.868   1.680 -0.3405  0.1181  0.1289
 4519SOL     OW17847   1.376   4.722   1.281  0.2300 -0.1266 -0.6537
 4519SOL    HW217848   1.391   4.729   1.375 -1.1369 -2.2582 -0.2358
 4519SOL    HW317849   1.363   4.629   1.265 -1.7848  0.4090 -2.6002
 4519SOL    MW417850   1.377   4.711   1.291 -0.2366 -0.4584 -0.2611
 4520SOL     OW17851   1.968   3.100   1.067 -0.1151 -0.0042  0.3585
 4520SOL    HW217852   1.943   3.065   1.153 -0.5984 -0.5710 -0.0084
 4520SOL    HW317853   1.987   3.192   1.084 -0.1512 -0.1219  1.0871
 4520SOL    MW417854   1.967   3.108   1.081 -0.1052  0.2939  0.1752
 4521SOL     OW17855   1.560   1.674   5.490 -0.3547 -0.6632  0.3684
 4521SOL    HW217856   1.495   1.733   5.528  1.6876  2.1717 -0.1603
 4521SOL    HW317857   1.528   1.656   5.402 -0.2795  1.0280 -0.0323
 4521SOL    MW417858   1.547   1.679   5.483 -0.4618  0.2273  0.0559
 4522SOL     OW17859   2.762   1.769   1.814 -0.1461  0.7011  0.4418
 4522SOL    HW217860   2.761   1.854   1.769  0.1750 -0.4354 -1.8892
 4522SOL    HW317861   2.847   1.732   1.793  0.1639  0.2388  2.3764
 4522SOL    MW417862   2.773   1.775   1.805  0.2138 -0.3297  0.3098
 4523SOL     OW17863   4.406   1.556   3.918 -0.3662  0.3225  0.9227
 4523SOL    HW217864   4.329   1.613   3.917 -0.5210  0.1128  0.3882
 4523SOL    HW317865   4.407   1.519   4.006 -0.1172  1.3454  1.3609
 4523SOL    MW417866   4.396   1.559   3.929  0.2081 -0.4043 -0.5711
 4524SOL     OW17867   4.284   1.107   5.854  0.6096  0.4193  0.1410
 4524SOL    HW217868   4.225   1.083   5.926  0.1933  1.1496  0.0551
 4524SOL    HW317869   4.330   1.026   5.833  1.2072  0.3318  1.6510
 4524SOL    MW417870   4.282   1.093   5.861 -0.0023 -0.0612 -0.1693
 4525SOL     OW17871   0.139   3.157   2.234 -0.0025  0.3384  0.3642
 4525SOL    HW217872   0.170   3.066   2.239 -0.1319  0.1556 -1.4527
 4525SOL    HW317873   0.056   3.151   2.187  0.1468  1.4252 -0.0514
 4525SOL    MW417874   0.133   3.144   2.229  0.3353 -0.4875  0.5447
 4526SOL     OW17875   2.026   5.602   5.244  0.0167  0.3771  0.1593
 4526SOL    HW217876   2.038   5.533   5.308  1.7083  0.5945  0.1186
 4526SOL    HW317877   2.026   5.683   5.295 -3.6319  0.3867  0.4233
 4526SOL    MW417878   2.028   5.604   5.259  0.0119 -0.0288  0.0089
 4527SOL     OW17879   4.449   2.838   1.519  0.2124  0.1348  0.5893
 4527SOL    HW217880   4.406   2.757   1.547  3.9594 -2.0802  0.6090
 4527SOL    HW317881   4.461   2.828   1.425  0.0898  0.9884  0.4786
 4527SOL    MW417882   4.445   2.826   1.510 -0.3284 -0.8204  0.1173
 4528SOL     OW17883   3.425   3.790   4.355 -0.0850 -0.1565 -0.6187
 4528SOL    HW217884   3.516   3.819   4.351  0.0139 -0.3640 -0.0042
 4528SOL    HW317885   3.407   3.780   4.448 -0.8208  0.1297 -0.7217
 4528SOL    MW417886   3.435   3.792   4.367  0.3452  0.5990  0.3157
 4529SOL     OW17887   2.635   5.309   0.851 -0.6267 -0.2796  0.1171
 4529SOL    HW217888   2.593   5.243   0.907 -0.1812 -0.1914  0.5662
 4529SOL    HW317889   2.725   5.278   0.841 -0.5271  0.0467 -0.0113
 4529SOL    MW417890   2.641   5.296   0.857 -0.9230 -0.0904 -0.4929
 4530SOL     OW17891   2.392   0.489   1.833 -0.2698  0.1672  0.1147
 4530SOL    HW217892   2.338   0.411   1.821  0.7779 -0.4861 -0.4384
 4530SOL    HW317893   2.401   0.497   1.928 -1.9151  0.7052  0.2491
 4530SOL    MW417894   2.386   0.480   1.844  0.1475 -0.0221 -0.1884
 4531SOL     OW17895   4.531   3.074   3.658 -0.7144  0.2339 -0.3560
 4531SOL    HW217896   4.515   3.163   3.627 -1.4035 -0.1686 -1.1807
 4531SOL    HW317897   4.456   3.055   3.714 -1.0659 -0.1804 -0.9646
 4531SOL    MW417898   4.519   3.083   3.661  0.1518  0.7360 -0.4705
 4532SOL     OW17899   6.363   5.930   2.172 -0.1372 -0.1971 -0.2571
 4532SOL    HW217900   6.279   5.886   2.155 -0.4747  0.2233  0.2906
 4532SOL    HW317901   6.428   5.860   2.166 -0.5444 -0.5578 -0.5273
 4532SOL    MW417902   6.360   5.915   2.169  0.7400 -0.2463 -0.0534
 4533SOL     OW17903   3.112   2.151   5.125 -0.3117  0.4264 -0.1689
 4533SOL    HW217904   3.170   2.096   5.071 -0.4112 -0.7018  0.8504
 4533SOL    HW317905   3.164   2.171   5.202 -0.9848  0.0917  0.3782
 4533SOL    MW417906   3.127   2.146   5.128 -0.2088  0.1456 -0.1543
 4534SOL     OW17907   6.341   5.983   6.087  0.3361 -0.1416 -0.2220
 4534SOL    HW217908   6.369   6.021   6.170 -0.7962  0.2883 -0.0196
 4534SOL    HW317909   6.344   6.056   6.025  1.0624 -0.4341 -0.5394
 4534SOL    MW417910   6.345   5.998   6.090 -0.2087 -0.0098 -0.2143
 4535SOL     OW17911   1.817   0.982   1.327 -0.2292  0.4376 -0.0110
 4535SOL    HW217912   1.813   1.051   1.260 -3.4155 -0.8802 -1.3926
 4535SOL    HW317913   1.835   0.902   1.279 -1.4939 -0.3864  0.8306
 4535SOL    MW417914   1.819   0.981   1.312  0.0125  0.2093  0.1560
 4536SOL     OW17915   5.334   2.798   1.423 -0.4453  0.5985 -0.3462
 4536SOL    HW217916   5.368   2.726   1.475  2.0592  1.1167 -1.1653
 4536SOL    HW317917   5.272   2.842   1.482 -0.8671 -1.2486  0.6862
 4536SOL    MW417918   5.330   2.794   1.438 -0.6871  0.2043 -0.2050
 4537SOL     OW17919   2.527   3.976   1.313 -0.1053 -0.1788  0.1643
 4537SOL    HW217920   2.569   3.929   1.385  0.7368 -0.7560 -0.6765
 4537SOL    HW317921   2.444   3.931   1.299  1.1472 -2.1906 -1.3381
 4537SOL    MW417922   2.522   3.964   1.321 -0.1892 -0.1470 -0.0800
 4538SOL     OW17923   2.126   3.707   0.998  0.4286  0.7678 -0.1420
 4538SOL    HW217924   2.127   3.791   1.045  1.3379  0.1672  0.9731
 4538SOL    HW317925   2.204   3.662   1.029 -1.6755 -1.8474  1.7913
 4538SOL    MW417926   2.137   3.712   1.008 -0.1653  0.0804  0.5245
 4539SOL     OW17927   4.140   6.261   1.945  0.3984  0.1450  0.3150
 4539SOL    HW217928   4.099   6.343   1.918  0.1138 -0.5860 -1.5781
 4539SOL    HW317929   4.234   6.277   1.938  0.3330 -0.0079 -1.1307
 4539SOL    MW417930   4.147   6.274   1.941  0.5000 -0.6770 -0.5996
 4540SOL     OW17931   1.544   1.835   2.199  0.6155  0.0027  0.1012
 4540SOL    HW217932   1.485   1.910   2.205  0.4941 -0.1178  0.4791
 4540SOL    HW317933   1.491   1.761   2.228  1.2385  0.0570  1.4973
 4540SOL    MW417934   1.530   1.835   2.204  0.4544  0.1508 -0.3866
 4541SOL     OW17935   3.846   4.369   1.696 -0.0247 -0.0625 -0.0482
 4541SOL    HW217936   3.846   4.317   1.776  1.1150  0.2864  0.1861
 4541SOL    HW317937   3.909   4.439   1.712 -0.4668  0.5514 -0.9042
 4541SOL    MW417938   3.854   4.371   1.709  0.7918 -0.5652  0.2526
 4542SOL     OW17939   0.983   5.205   3.719  0.3866 -0.1002  0.0323
 4542SOL    HW217940   0.968   5.213   3.625  0.8820  0.3806 -0.0084
 4542SOL    HW317941   0.990   5.111   3.735 -0.8873 -0.2607 -0.2191
 4542SOL    MW417942   0.982   5.193   3.709  0.6857  0.2018 -0.0277
 4543SOL     OW17943   1.070   5.582   6.369 -0.5006 -0.2207  0.0323
 4543SOL    HW217944   1.049   5.489   6.374 -0.7230 -0.1638  0.1578
 4543SOL    HW317945   1.121   5.591   6.288  0.4065 -0.6214  0.5400
 4543SOL    MW417946   1.074   5.571   6.359  0.0733  0.6376 -0.3435
 4544SOL     OW17947   2.382   0.033   5.827 -0.3116 -0.0459 -0.7665
 4544SOL    HW217948   2.360   0.073   5.743  0.7416 -0.0422 -1.0642
 4544SOL    HW317949   2.361   0.100   5.892 -0.4670  0.2194 -1.0883
 4544SOL    MW417950   2.377   0.047   5.825 -0.8327  0.1974 -0.2940
 4545SOL     OW17951   2.758   5.063   1.171 -0.0984 -0.2759 -0.1843
 4545SOL    HW217952   2.766   4.968   1.181 -2.4032 -0.3852  1.3456
 4545SOL    HW317953   2.703   5.074   1.093 -0.7844 -0.2717  0.2889
 4545SOL    MW417954   2.752   5.052   1.162 -0.2904  0.2734 -0.2635
 4546SOL     OW17955   1.157   3.662   4.454  0.2033  0.3576  0.0555
 4546SOL    HW217956   1.146   3.720   4.529 -2.3737 -1.7006  1.4385
 4546SOL    HW317957   1.099   3.697   4.387 -0.3501  0.1297  0.4118
 4546SOL    MW417958   1.148   3.674   4.455  0.3476  0.2417 -0.2038
 4547SOL     OW17959   5.315   1.952   5.649 -0.2519 -0.6320 -0.4105
 4547SOL    HW217960   5.329   1.893   5.575  2.9451  2.3325 -2.4741
 4547SOL    HW317961   5.242   2.007   5.622 -1.1686 -1.5257  0.1460
 4547SOL    MW417962   5.307   1.951   5.636 -0.6771  0.1713 -0.0891
 4548SOL     OW17963   1.278   0.027   0.358 -0.1856  0.4993  0.2918
 4548SOL    HW217964   1.249   0.112   0.389 -0.2355  0.6105 -0.0519
 4548SOL    HW317965   1.309   0.043   0.269  0.1417  0.2264  0.3513
 4548SOL    MW417966   1.278   0.040   0.350  0.1427 -0.2318  0.2860
 4549SOL     OW17967   5.751   5.480   5.097 -0.3327 -0.2208 -0.1986
 4549SOL    HW217968   5.778   5.566   5.130  1.2556 -0.5728 -0.4846
 4549SOL    HW317969   5.695   5.499   5.021  0.7461  0.5780 -0.8209
 4549SOL    MW417970   5.747   5.494   5.091 -0.2010 -0.3585 -0.1679
 4550SOL     OW17971   1.095   2.102   1.809  0.3579 -0.2041 -0.1604
 4550SOL    HW217972   1.031   2.032   1.825  0.8586 -0.9777 -1.3928
 4550SOL    HW317973   1.056   2.155   1.740  0.5109  0.0327 -0.0655
 4550SOL    MW417974   1.081   2.100   1.802 -0.3691 -0.3034 -0.3257
 4551SOL     OW17975   0.215   1.653   4.709  0.0269  0.5620  0.5629
 4551SOL    HW217976   0.282   1.627   4.773  1.3884  2.1405 -0.1242
 4551SOL    HW317977   0.262   1.710   4.648 -1.6165  0.4513 -0.8823
 4551SOL    MW417978   0.230   1.657   4.709  0.2834 -0.1967 -0.1210
 4552SOL     OW17979   4.046   2.732   6.072  0.2361  0.2712  0.0653
 4552SOL    HW217980   3.996   2.651   6.087 -0.0384  0.8171  2.5308
 4552SOL    HW317981   3.979   2.799   6.057  0.0551  0.9809  3.2615
 4552SOL    MW417982   4.030   2.730   6.072  0.3511  0.4338 -0.1112
 4553SOL     OW17983   4.209   4.387   5.420  0.1895  0.4198 -0.0266
 4553SOL    HW217984   4.140   4.424   5.474  0.4130  2.7767 -1.2136
 4553SOL    HW317985   4.164   4.359   5.340  0.2285 -0.7357  0.3342
 4553SOL    MW417986   4.194   4.388   5.416  0.7019  0.2928 -0.0070
 4554SOL     OW17987   1.305   2.304   5.536 -0.0682 -0.1665 -0.4222
 4554SOL    HW217988   1.263   2.389   5.544  0.0500 -0.1704  0.3198
 4554SOL    HW317989   1.269   2.253   5.609  0.2635 -0.5752 -0.5404
 4554SOL    MW417990   1.295   2.308   5.547  0.5898  0.0049 -0.3061
 4555SOL     OW17991   0.045   3.084   5.079 -0.6965 -0.0875 -0.3538
 4555SOL    HW217992   0.003   3.155   5.127 -1.9527 -0.8564 -0.2800
 4555SOL    HW317993   0.058   3.120   4.991 -1.3258  0.2346 -0.3197
 4555SOL    MW417994   0.041   3.098   5.074  0.0534 -0.2408 -0.1620
 4556SOL     OW17995   3.210   4.293   5.319  0.2086 -0.5778  0.2266
 4556SOL    HW217996   3.273   4.310   5.388  0.7402 -1.2592 -0.0806
 4556SOL    HW317997   3.249   4.222   5.267 -0.1599 -0.0580 -0.7863
 4556SOL    MW417998   3.223   4.286   5.321 -0.7241  0.1870  0.1875
 4557SOL     OW17999   0.860   1.598   0.253  0.1450 -0.1142 -0.1240
 4557SOL    HW218000   0.918   1.666   0.289 -0.4352  0.1585  0.2984
 4557SOL    HW318001   0.818   1.641   0.179 -1.2182  0.4391  0.9317
 4557SOL    MW418002   0.862   1.613   0.248  0.3016 -0.4296  1.1047
 4558SOL     OW18003   4.980   2.635   0.578  0.1728 -0.1765 -0.3378
 4558SOL    HW218004   4.928   2.713   0.558  2.2558  0.8632 -2.0843
 4558SOL    HW318005   4.994   2.639   0.672 -1.2412  0.5422 -0.1237
 4558SOL    MW418006   4.975   2.646   0.587 -0.0516  0.2926  0.7997
 4559SOL     OW18007   5.043   3.190   2.190  0.5171  0.8906 -0.4318
 4559SOL    HW218008   5.132   3.194   2.224  0.3184 -0.7757  0.3876
 4559SOL    HW318009   5.052   3.173   2.097  1.1034 -1.7188  0.0380
 4559SOL    MW418010   5.056   3.189   2.182 -0.1927  0.3842  0.1188
 4560SOL     OW18011   1.701   0.988   0.926  0.1834  0.4089 -1.3869
 4560SOL    HW218012   1.663   1.052   0.866 -1.2306  0.7025 -0.2482
 4560SOL    HW318013   1.625   0.950   0.970  1.1840  0.3070  0.3073
 4560SOL    MW418014   1.686   0.992   0.924 -0.4817  0.2366 -0.1646
 4561SOL     OW18015   2.435   2.938   6.114 -0.5304 -0.2013  0.2924
 4561SOL    HW218016   2.478   2.994   6.050  1.1514 -0.7666  0.8775
 4561SOL    HW318017   2.363   2.991   6.148  1.8543  2.2542  1.9069
 4561SOL    MW418018   2.431   2.952   6.110 -0.5402  0.2059  0.3349
 4562SOL     OW18019   2.276   4.711   5.509 -0.4832  0.4773  0.5531
 4562SOL    HW218020   2.289   4.633   5.563 -0.9292  0.0602  0.0732
 4562SOL    HW318021   2.296   4.682   5.420 -0.5856  0.9288  0.3790
 4562SOL    MW418022   2.280   4.697   5.504 -0.4613 -0.0514 -0.5335
 4563SOL     OW18023   2.001   3.984   2.296  0.0677 -0.3563 -0.0852
 4563SOL    HW218024   2.029   3.994   2.205  1.1897 -0.5492  0.2300
 4563SOL    HW318025   2.033   4.062   2.341 -0.4248 -0.2919  0.1634
 4563SOL    MW418026   2.009   3.995   2.290  0.2390 -0.6684  0.3587
 4564SOL     OW18027   3.518   1.513   4.018 -0.1212 -0.4843  0.4147
 4564SOL    HW218028   3.600   1.477   3.984 -0.1889  1.1117 -1.6395
 4564SOL    HW318029   3.451   1.448   3.993  0.1269 -0.3479 -0.6435
 4564SOL    MW418030   3.520   1.499   4.010  0.7795 -0.1930 -0.1767
 4565SOL     OW18031   4.018   6.163   1.067 -0.1517 -0.0686 -0.3428
 4565SOL    HW218032   4.027   6.243   1.015  0.1674  0.1811  0.0947
 4565SOL    HW318033   3.927   6.135   1.052 -1.1129  1.8084  1.5666
 4565SOL    MW418034   4.007   6.170   1.058 -0.2958  0.3900 -0.2041
 4566SOL     OW18035   5.301   4.958   0.449  0.4462 -0.1841 -0.0091
 4566SOL    HW218036   5.210   4.970   0.420  0.9675 -0.0779 -1.6828
 4566SOL    HW318037   5.312   5.022   0.519 -0.8394 -0.3955  0.4285
 4566SOL    MW418038   5.290   4.968   0.455  0.0982 -0.2715 -0.3250
 4567SOL     OW18039   2.605   3.617   2.259 -0.0834  0.9209  0.2117
 4567SOL    HW218040   2.590   3.589   2.349 -0.9241  1.6913  0.3334
 4567SOL    HW318041   2.670   3.687   2.265 -0.3057  1.1276  0.2569
 4567SOL    MW418042   2.611   3.623   2.272  0.6799  0.1442 -0.3645
 4568SOL     OW18043   4.543   0.821   0.486  0.4427 -0.3092  0.0059
 4568SOL    HW218044   4.625   0.815   0.437  1.0090 -0.2456  0.9267
 4568SOL    HW318045   4.555   0.897   0.544  0.5552 -1.4792  1.5918
 4568SOL    MW418046   4.555   0.830   0.487  0.1201  0.2523 -0.0697
 4569SOL     OW18047   3.451   3.147   5.264 -0.0223  0.3121 -0.4482
 4569SOL    HW218048   3.532   3.096   5.266  0.1435  0.5645  1.3137
 4569SOL    HW318049   3.452   3.191   5.179  0.4945 -1.5319 -1.4513
 4569SOL    MW418050   3.462   3.146   5.253  0.4532 -0.4417  0.1071
 4570SOL     OW18051   0.160   3.397   2.804 -0.2539 -0.2284 -0.1354
 4570SOL    HW218052   0.235   3.343   2.828 -0.9849 -1.1769  0.0548
 4570SOL    HW318053   0.102   3.338   2.757 -0.8080  0.5473 -0.4478
 4570SOL    MW418054   0.162   3.382   2.801 -0.3992  0.0340  0.4771
 4571SOL     OW18055   0.018   6.140   0.755 -0.2309  0.1608  0.4595
 4571SOL    HW218056   0.095   6.107   0.708 -0.0315  2.0852 -0.6634
 4571SOL    HW318057   0.051   6.166   0.841  0.5401  1.5528 -0.2326
 4571SOL    MW418058   0.032   6.139   0.760  0.0570 -0.3966 -0.3987
 4572SOL     OW18059   1.227   0.182   5.896  0.0325 -0.0232 -0.9166
 4572SOL    HW218060   1.179   0.104   5.868  0.0880  0.6233 -2.9145
 4572SOL    HW318061   1.172   0.220   5.965 -1.6919 -0.0338 -2.2262
 4572SOL    MW418062   1.213   0.177   5.902  0.0074  0.1943 -0.3535
 4573SOL     OW18063   0.746   5.961   5.154 -0.4190  0.2288 -0.3201
 4573SOL    HW218064   0.672   5.949   5.215 -0.7167 -2.7738 -1.0805
 4573SOL    HW318065   0.706   5.956   5.067  0.7041 -3.6239 -0.8173
 4573SOL    MW418066   0.731   5.958   5.151 -0.0485  0.0128 -0.1856
 4574SOL     OW18067   5.271   1.478   1.592 -0.4336  0.1794 -0.4445
 4574SOL    HW218068   5.239   1.492   1.681 -0.4423  0.6519 -0.5198
 4574SOL    HW318069   5.259   1.384   1.577 -0.3339  0.0772  0.0886
 4574SOL    MW418070   5.265   1.467   1.602 -0.2787  0.2256 -0.4950
 4575SOL     OW18071   2.736   1.343   1.568  0.2275  0.6902  0.5513
 4575SOL    HW218072   2.737   1.406   1.641  0.4583  1.2343  0.0858
 4575SOL    HW318073   2.653   1.360   1.523  0.5899  1.1331  0.0321
 4575SOL    MW418074   2.725   1.354   1.572 -0.0167  0.4253 -0.2062
 4576SOL     OW18075   1.015   0.506   5.388  0.0748 -0.1923 -0.0987
 4576SOL    HW218076   1.013   0.415   5.417 -0.9575 -0.6626 -1.5505
 4576SOL    HW318077   1.040   0.555   5.466 -0.1842 -1.6348  0.9297
 4576SOL    MW418078   1.018   0.501   5.402  0.0472  0.0153 -0.2729
 4577SOL     OW18079   1.112   0.454   4.616  0.4327  0.8126 -0.5595
 4577SOL    HW218080   1.199   0.454   4.576  0.3880  0.4006 -0.6681
 4577SOL    HW318081   1.116   0.520   4.685  1.2890 -0.2257  0.4177
 4577SOL    MW418082   1.124   0.462   4.620  0.1147  0.4915  0.4122
 4578SOL     OW18083   5.247   0.621   4.854 -0.2656 -0.1222 -0.4659
 4578SOL    HW218084   5.197   0.540   4.866 -0.2488 -0.0849 -0.1305
 4578SOL    HW318085   5.323   0.611   4.911  0.4940 -0.4793 -1.5097
 4578SOL    MW418086   5.250   0.609   4.863 -0.1634  0.1761 -0.0936
 4579SOL     OW18087   2.959   2.635   2.300  0.4742  1.1055 -0.2269
 4579SOL    HW218088   3.040   2.636   2.351  1.0449 -3.0533 -0.7090
 4579SOL    HW318089   2.890   2.658   2.363  1.6255  0.8945  1.1575
 4579SOL    MW418090   2.961   2.638   2.315  0.0690  0.3543  0.2848
 4580SOL     OW18091   3.645   3.253   3.397  0.0212 -0.0692 -0.0565
 4580SOL    HW218092   3.686   3.333   3.364  2.2490 -1.3666 -0.6240
 4580SOL    HW318093   3.676   3.184   3.339  0.0205 -1.6976  1.7740
 4580SOL    MW418094   3.655   3.255   3.385 -0.0605  0.1275 -1.0016
 4581SOL     OW18095   1.882   4.234   1.612  0.1968 -0.2910  0.3435
 4581SOL    HW218096   1.833   4.226   1.530 -0.9900 -0.2959  1.0431
 4581SOL    HW318097   1.903   4.144   1.636 -0.6612 -0.3847  0.7585
 4581SOL    MW418098   1.879   4.221   1.604 -0.2897 -0.0595  0.4470
 4582SOL     OW18099   1.162   2.463   1.725 -0.3863  0.3589 -0.4833
 4582SOL    HW218100   1.235   2.402   1.736 -1.2807 -0.4985  1.2936
 4582SOL    HW318101   1.097   2.413   1.676  0.2223  1.1813 -2.2207
 4582SOL    MW418102   1.163   2.448   1.720  0.0718  0.3294  0.0771
 4583SOL     OW18103   2.797   5.781   2.328  0.1585  0.4492  0.5832
 4583SOL    HW218104   2.813   5.723   2.254 -0.9620  0.6796  0.1446
 4583SOL    HW318105   2.702   5.793   2.330  0.1746  0.5703  1.9660
 4583SOL    MW418106   2.787   5.775   2.319  0.5992  0.4475 -0.0442
 4584SOL     OW18107   6.378   2.808   5.539 -0.6962 -0.0693 -0.0974
 4584SOL    HW218108   6.326   2.831   5.461 -1.6812  0.3215  0.6470
 4584SOL    HW318109   6.316   2.818   5.612  0.6119  1.0487  0.9085
 4584SOL    MW418110   6.363   2.812   5.538 -0.5039  0.4971 -0.2532
 4585SOL     OW18111   2.869   0.870   2.624  0.4250  0.2161  0.0385
 4585SOL    HW218112   2.918   0.946   2.595  1.2615 -0.3984 -0.2064
 4585SOL    HW318113   2.830   0.896   2.707  0.4469  1.0048 -0.1948
 4585SOL    MW418114   2.870   0.883   2.631  0.1793  0.3602 -0.1038
 4586SOL     OW18115   0.599   1.858   4.437 -0.1717  0.1434 -0.4465
 4586SOL    HW218116   0.533   1.859   4.507  1.6493 -0.0366  1.3531
 4586SOL    HW318117   0.664   1.923   4.464  1.7523 -1.5506 -0.7579
 4586SOL    MW418118   0.599   1.867   4.449 -0.0921  0.8220 -0.4871
 4587SOL     OW18119   0.577   4.357   1.018  0.5151  0.1067  0.5404
 4587SOL    HW218120   0.511   4.393   1.078 -1.6092 -3.5661  0.6801
 4587SOL    HW318121   0.657   4.354   1.070  0.4330  2.8753  1.0080
 4587SOL    MW418122   0.578   4.361   1.033 -0.1847  0.3196 -0.1372
 4588SOL     OW18123   2.508   4.021   4.018  0.0921  0.4718  0.0934
 4588SOL    HW218124   2.495   4.104   4.063  1.0575  1.2546 -1.0215
 4588SOL    HW318125   2.602   4.014   4.006 -0.1275  0.4934 -2.0928
 4588SOL    MW418126   2.519   4.031   4.023 -0.0952  0.3669 -0.2138
 4589SOL     OW18127   0.580   4.110   3.320 -0.6891 -0.1297  0.3468
 4589SOL    HW218128   0.638   4.097   3.246 -1.2147 -0.6751  0.0179
 4589SOL    HW318129   0.542   4.197   3.307 -1.0891 -0.3839 -0.2564
 4589SOL    MW418130   0.582   4.119   3.309 -0.2816 -0.4599 -0.1220
 4590SOL     OW18131   5.417   1.903   2.430 -0.0087  0.3582  0.3005
 4590SOL    HW218132   5.493   1.961   2.434  2.3822 -2.2799 -2.2902
 4590SOL    HW318133   5.453   1.815   2.437 -3.0412 -1.0042  0.4041
 4590SOL    MW418134   5.432   1.899   2.432  0.0385 -0.0643  0.0909
 4591SOL     OW18135   3.535   1.429   1.519 -0.5234 -0.1129  0.2459
 4591SOL    HW218136   3.601   1.372   1.560 -0.7548 -0.4521  0.1545
 4591SOL    HW318137   3.573   1.453   1.435  0.2434  1.1280  0.9239
 4591SOL    MW418138   3.549   1.424   1.513 -0.3492 -0.2615 -0.2167
 4592SOL     OW18139   2.392   1.531   6.001 -0.7351  0.1369 -0.0635
 4592SOL    HW218140   2.416   1.623   5.988 -1.8934  0.1596 -2.5029
 4592SOL    HW318141   2.474   1.483   5.993 -0.2041  0.8793  0.6980
 4592SOL    MW418142   2.406   1.537   5.999  0.0547 -0.1146  0.4361
 4593SOL     OW18143   4.741   4.638   5.255 -0.3786  0.6114 -0.3145
 4593SOL    HW218144   4.676   4.636   5.326 -1.0173  2.6239 -0.7836
 4593SOL    HW318145   4.738   4.550   5.219 -2.0295  0.3208  0.4214
 4593SOL    MW418146   4.732   4.626   5.260 -0.5488 -0.7026  0.4347
 4594SOL     OW18147   0.249   1.826   2.048 -0.2570 -0.6023 -0.0714
 4594SOL    HW218148   0.266   1.902   2.103 -2.6422 -1.3524  1.8802
 4594SOL    HW318149   0.321   1.826   1.984  1.0410  1.9637  1.2306
 4594SOL    MW418150   0.261   1.836   2.047 -0.3186 -0.1474 -0.3323
 4595SOL     OW18151   4.483   0.556   0.488  0.0280 -0.1703 -0.1896
 4595SOL    HW218152   4.563   0.527   0.444 -1.5892 -0.6200 -3.0923
 4595SOL    HW318153   4.485   0.651   0.480 -0.5161 -0.2709 -1.8883
 4595SOL    MW418154   4.494   0.565   0.481  0.4878  0.5173  0.4697
 4596SOL     OW18155   5.246   5.573   2.578  0.0705  0.5445  0.0407
 4596SOL    HW218156   5.196   5.631   2.519  0.3756  2.0077  1.1667
 4596SOL    HW318157   5.328   5.557   2.531  0.3154  1.7105  0.0331
 4596SOL    MW418158   5.250   5.579   2.564  0.0281  0.3184 -0.2619
 4597SOL     OW18159   3.612   2.552   6.207  0.3323 -0.1008  0.0783
 4597SOL    HW218160   3.551   2.613   6.166 -0.4642 -0.0666  1.2605
 4597SOL    HW318161   3.569   2.467   6.202 -0.2969  0.0698  1.7336
 4597SOL    MW418162   3.598   2.549   6.201  0.2226 -0.4043  0.0078
 4598SOL     OW18163   3.901   4.058   3.652  0.2807 -0.4606 -0.0233
 4598SOL    HW218164   3.812   4.046   3.684  0.4432 -0.7684  0.3297
 4598SOL    HW318165   3.907   4.152   3.633  1.0692  0.4641  3.8046
 4598SOL    MW418166   3.890   4.069   3.654 -0.0279  0.5198  0.0498
 4599SOL     OW18167   2.175   5.105   4.997  0.0372 -0.3596  0.2216
 4599SOL    HW218168   2.112   5.174   5.016 -0.0092 -0.9931  2.6925
 4599SOL    HW318169   2.132   5.024   5.024  0.9052 -1.1330 -0.6078
 4599SOL    MW418170   2.161   5.103   5.003 -0.1459 -0.0667 -0.4220
 4600SOL     OW18171   4.867   2.981   2.239 -0.0085 -0.0869  0.8111
 4600SOL    HW218172   4.800   3.023   2.292  0.5287  0.4102  1.1073
 4600SOL    HW318173   4.931   3.050   2.222  0.3913 -0.5328  0.4653
 4600SOL    MW418174   4.867   2.995   2.243 -0.0449  0.5551 -0.1659
 4601SOL     OW18175   0.365   3.082   0.486  0.4049 -0.3003  0.1892
 4601SOL    HW218176   0.341   3.131   0.565 -0.7879 -1.1755  0.3862
 4601SOL    HW318177   0.414   3.146   0.434 -1.0480  1.1217  0.4640
 4601SOL    MW418178   0.368   3.097   0.490  0.2017  0.0610 -0.1454
 4602SOL     OW18179   5.586   5.014   5.218  0.2525 -0.1447 -0.1916
 4602SOL    HW218180   5.575   5.023   5.312 -1.0816  2.6477 -0.5306
 4602SOL    HW318181   5.653   5.079   5.195  0.0039 -0.2500 -1.2694
 4602SOL    MW418182   5.594   5.024   5.227 -0.0209  0.0391 -0.2601
 4603SOL     OW18183   2.622   1.514   0.375 -0.0361  0.0032 -0.4389
 4603SOL    HW218184   2.651   1.561   0.453 -1.1010 -1.3994  0.8665
 4603SOL    HW318185   2.527   1.513   0.382 -0.0729 -1.6019 -0.8330
 4603SOL    MW418186   2.614   1.520   0.386 -0.0476  0.1140  0.0928
 4604SOL     OW18187   1.581   1.040   3.995 -0.3909  0.2354  0.1452
 4604SOL    HW218188   1.643   0.979   4.034 -1.7833 -0.5259  1.2594
 4604SOL    HW318189   1.496   0.999   4.008 -1.0205  0.3489 -3.0150
 4604SOL    MW418190   1.578   1.027   4.002 -0.0238 -0.3036 -0.5043
 4605SOL     OW18191   6.003   4.976   1.739  0.0565  0.2041 -0.2012
 4605SOL    HW218192   6.087   4.950   1.776 -1.0226 -1.8024  1.0055
 4605SOL    HW318193   5.987   4.913   1.669  0.0566  1.3129 -1.2439
 4605SOL    MW418194   6.012   4.964   1.735 -0.0486  0.2952 -0.0767
 4606SOL     OW18195   2.151   0.543   6.046  0.1335  0.1536 -1.1503
 4606SOL    HW218196   2.215   0.495   6.100  0.1697 -0.9402 -2.1211
 4606SOL    HW318197   2.094   0.586   6.110  1.0202  0.0452 -0.2548
 4606SOL    MW418198   2.152   0.542   6.062 -0.4492 -0.2915  0.0040
 4607SOL     OW18199   4.335   5.859   0.509  0.3403 -0.1555 -0.0826
 4607SOL    HW218200   4.335   5.831   0.417  0.2633 -2.2313  0.4945
 4607SOL    HW318201   4.388   5.793   0.554 -2.0096 -0.8906  1.8138
 4607SOL    MW418202   4.342   5.847   0.503 -0.2711  0.1792  0.1445
 4608SOL     OW18203   3.305   3.872   5.999  0.1755 -0.3570 -0.1328
 4608SOL    HW218204   3.275   3.825   5.921  0.4488 -2.2107  0.8135
 4608SOL    HW318205   3.297   3.808   6.070 -3.2718  2.2097  2.1182
 4608SOL    MW418206   3.300   3.857   5.998  0.9413  0.2846  0.0944
 4609SOL     OW18207   3.258   2.524   0.662 -0.1623  0.0051  0.1870
 4609SOL    HW218208   3.351   2.546   0.669 -0.6231  2.0837  0.2644
 4609SOL    HW318209   3.247   2.452   0.725  1.3638 -0.2364  0.2359
 4609SOL    MW418210   3.269   2.517   0.672  0.4163 -0.3758  0.1845
 4610SOL     OW18211   4.873   5.125   4.437 -0.4146  0.0006  0.3503
 4610SOL    HW218212   4.913   5.210   4.456 -0.8785 -0.1278  2.0808
 4610SOL    HW318213   4.787   5.146   4.402 -0.8072  0.2686  1.4338
 4610SOL    MW418214   4.867   5.139   4.435 -0.5537  0.3713  0.2605
 4611SOL     OW18215   5.781   1.024   5.626  0.0816  0.1410  0.0208
 4611SOL    HW218216   5.852   0.969   5.660 -1.9558 -1.8771  1.3390
 4611SOL    HW318217   5.752   1.075   5.701 -1.8489 -1.4035  0.4073
 4611SOL    MW418218   5.787   1.023   5.640  0.0237 -0.3083  1.0170
 4612SOL     OW18219   0.406   6.385   1.365 -0.2671  0.0927  0.2361
 4612SOL    HW218220   0.330   6.376   1.308 -0.3548 -0.1199  0.3872
 4612SOL    HW318221   0.478   6.403   1.305 -0.5357  0.8823  0.1405
 4612SOL    MW418222   0.406   6.386   1.350  0.3672  0.0320 -0.1116
 4613SOL     OW18223   0.509   0.588   5.964  0.4572 -0.3404  0.1727
 4613SOL    HW218224   0.508   0.652   5.892  0.7067  0.2688  0.7062
 4613SOL    HW318225   0.487   0.505   5.921  3.0422 -0.4736 -1.0673
 4613SOL    MW418226   0.506   0.586   5.949 -0.0868 -0.4805  0.7737
 4614SOL     OW18227   1.823   1.264   2.547 -0.0478  0.3035  0.3543
 4614SOL    HW218228   1.864   1.201   2.606  0.0081 -0.7574 -0.7747
 4614SOL    HW318229   1.801   1.339   2.603  0.8439 -0.2739  1.5218
 4614SOL    MW418230   1.825   1.266   2.562  0.0080  0.1452  0.2213
 4615SOL     OW18231   5.207   3.489   4.176 -0.2695 -0.4992 -0.2205
 4615SOL    HW218232   5.210   3.536   4.093  0.6404 -0.7305 -0.3247
 4615SOL    HW318233   5.145   3.539   4.230 -0.3402  0.0399 -0.7980
 4615SOL    MW418234   5.199   3.502   4.172  0.1269 -0.2661 -0.5046
 4616SOL     OW18235   3.359   2.594   5.245  0.1347  0.2495  0.3009
 4616SOL    HW218236   3.385   2.502   5.250  1.8462  0.7152  0.6265
 4616SOL    HW318237   3.442   2.642   5.234 -0.8434  1.6339 -1.7998
 4616SOL    MW418238   3.374   2.588   5.244  0.5566 -0.1263 -0.4459
 4617SOL     OW18239   1.771   4.699   5.320  0.2515  0.5190 -0.4772
 4617SOL    HW218240   1.728   4.626   5.275  1.7430 -0.3009 -0.6320
 4617SOL    HW318241   1.838   4.657   5.374  0.2253  1.6892  0.4912
 4617SOL    MW418242   1.774   4.684   5.321  0.0543 -0.1567 -0.2852
 4618SOL     OW18243   0.387   6.054   1.763 -0.5943  1.0272 -0.9116
 4618SOL    HW218244   0.344   6.120   1.817  0.8127  2.2696 -1.2230
 4618SOL    HW318245   0.382   5.974   1.815 -1.6746  1.5456 -0.1750
 4618SOL    MW418246   0.381   6.052   1.777  0.1367 -0.4701 -0.4751
 4619SOL     OW18247   4.591   5.600   2.338  0.4615  0.4653 -0.3295
 4619SOL    HW218248   4.547   5.515   2.328  0.4538  0.3811  0.4038
 4619SOL    HW318249   4.590   5.617   2.432  1.8614  0.5324 -0.3115
 4619SOL    MW418250   4.585   5.591   2.349 -0.1282 -0.1351  0.2444
 4620SOL     OW18251   2.132   4.630   3.438  0.3644 -0.3684  0.6068
 4620SOL    HW218252   2.101   4.543   3.461  2.4566 -2.1599 -2.6029
 4620SOL    HW318253   2.072   4.660   3.369 -0.3069  0.7778  1.6455
 4620SOL    MW418254   2.120   4.622   3.432  0.0039  0.0002  0.6043
 4621SOL     OW18255   0.517   5.630   4.816 -0.5183 -0.3278  0.0262
 4621SOL    HW218256   0.491   5.618   4.908 -0.7465 -1.0227 -0.1263
 4621SOL    HW318257   0.484   5.553   4.771  0.3137 -0.3876 -0.4995
 4621SOL    MW418258   0.509   5.619   4.823 -0.4274 -0.3205 -0.1736
 4622SOL     OW18259   2.851   0.463   1.509  0.4817  0.0487 -0.5308
 4622SOL    HW218260   2.934   0.414   1.513  0.9198  0.7067 -1.1991
 4622SOL    HW318261   2.812   0.451   1.595  1.7790  0.5718  0.1627
 4622SOL    MW418262   2.857   0.455   1.521  0.1187 -0.0333 -0.9019
 4623SOL     OW18263   3.501   6.166   2.862 -0.0049 -0.4645  0.3157
 4623SOL    HW218264   3.455   6.098   2.910 -1.8721 -0.3261 -1.1296
 4623SOL    HW318265   3.468   6.248   2.900  1.9213 -0.3028  1.7703
 4623SOL    MW418266   3.490   6.168   2.873  0.0514 -0.6458 -0.4843
 4624SOL     OW18267   4.219   1.022   2.717 -0.6065 -0.3636  0.2252
 4624SOL    HW218268   4.194   0.941   2.761  0.3626 -1.3632 -1.0021
 4624SOL    HW318269   4.315   1.019   2.714 -0.5483  0.8844  0.2315
 4624SOL    MW418270   4.229   1.011   2.723 -0.2111  0.8038 -0.3284
 4625SOL     OW18271   3.669   0.309   1.511 -0.5164  0.1701 -0.1723
 4625SOL    HW218272   3.590   0.318   1.458 -0.3969  2.0277 -0.1119
 4625SOL    HW318273   3.741   0.323   1.450 -0.2301 -1.0467 -0.1362
 4625SOL    MW418274   3.668   0.312   1.496 -0.0668 -0.5075  0.7046
 4626SOL     OW18275   2.665   1.241   5.176  0.3225  0.1416 -0.1357
 4626SOL    HW218276   2.623   1.286   5.103  0.2741  1.5728  0.7131
 4626SOL    HW318277   2.744   1.292   5.193  0.2226 -0.0236  0.9289
 4626SOL    MW418278   2.670   1.254   5.169 -0.3161 -0.1961 -0.1301
 4627SOL     OW18279   3.464   1.522   5.638 -0.4574  0.3691  0.1501
 4627SOL    HW218280   3.521   1.487   5.707  1.8583  1.4822 -1.0703
 4627SOL    HW318281   3.471   1.458   5.566  0.4320  1.2012 -0.5290
 4627SOL    MW418282   3.473   1.509   5.637 -0.3729  0.0476 -0.6815
 4628SOL     OW18283   6.126   2.386   1.158  0.1766 -0.3767 -0.3095
 4628SOL    HW218284   6.043   2.423   1.188  0.3429 -0.0943 -0.1946
 4628SOL    HW318285   6.154   2.444   1.087  0.7593  0.1005  0.2988
 4628SOL    MW418286   6.118   2.398   1.153 -0.1052 -0.0996 -0.0209
 4629SOL     OW18287   2.591   5.389   1.310 -0.1456 -0.7905 -0.7791
 4629SOL    HW218288   2.635   5.413   1.229  1.4919  1.3595  0.6384
 4629SOL    HW318289   2.543   5.467   1.335  1.5819 -0.4094  1.6653
 4629SOL    MW418290   2.590   5.402   1.303 -0.5834 -0.1905  0.0238
 4630SOL     OW18291   4.085   4.142   1.592  0.1076 -0.1093 -0.3388
 4630SOL    HW218292   4.065   4.180   1.507  1.1139 -1.0142 -1.0057
 4630SOL    HW318293   4.115   4.217   1.645 -1.7714  0.6893 -0.3144
 4630SOL    MW418294   4.086   4.157   1.588  0.0318  0.0232 -0.2629
 4631SOL     OW18295   4.249   1.501   2.789 -0.2914  0.0724  0.0370
 4631SOL    HW218296   4.304   1.556   2.732  1.7560 -1.0445  0.8435
 4631SOL    HW318297   4.211   1.563   2.852 -1.1124  1.0531 -1.3524
 4631SOL    MW418298   4.251   1.517   2.790 -0.0915  0.3535 -0.1253
 4632SOL     OW18299   0.973   3.393   0.434  0.2059 -0.0885  0.8366
 4632SOL    HW218300   0.973   3.479   0.477 -1.1256 -0.2359  1.1546
 4632SOL    HW318301   0.889   3.354   0.457  0.8517 -1.5629  0.8333
 4632SOL    MW418302   0.962   3.399   0.443  0.0792  0.2478  0.4186
 4633SOL     OW18303   6.230   3.260   1.414  0.3090  0.5853  0.3442
 4633SOL    HW218304   6.239   3.168   1.437  1.4934  0.5042 -0.3794
 4633SOL    HW318305   6.302   3.304   1.459  0.9220  0.8508 -0.8487
 4633SOL    MW418306   6.241   3.254   1.423  0.5248  0.4108 -0.5548
 4634SOL     OW18307   1.257   4.879   1.852  0.5982  0.2457  0.0107
 4634SOL    HW218308   1.249   4.784   1.864  1.5983  0.3478  1.9537
 4634SOL    HW318309   1.333   4.903   1.905 -0.3580  2.3109  0.5338
 4634SOL    MW418310   1.266   4.870   1.860 -0.7477  0.2714  0.0942
 4635SOL     OW18311   4.332   3.082   1.466  0.3278  0.0069  0.3144
 4635SOL    HW218312   4.299   3.095   1.555  0.4943  0.6830  0.2843
 4635SOL    HW318313   4.383   3.001   1.470 -2.5393 -1.9545  0.0302
 4635SOL    MW418314   4.334   3.073   1.478 -0.6019 -0.3804 -0.3738
 4636SOL     OW18315   5.080   3.503   2.525 -0.1120  0.6975 -0.3071
 4636SOL    HW218316   5.151   3.540   2.472 -0.4526  0.8157 -0.6837
 4636SOL    HW318317   5.011   3.481   2.462 -0.7483  1.3533  0.1406
 4636SOL    MW418318   5.080   3.505   2.510 -0.7754 -0.0313  0.3955
 4637SOL     OW18319   5.349   2.985   4.716 -0.5096 -0.0778 -0.0341
 4637SOL    HW218320   5.353   2.893   4.689 -1.3860 -0.1178 -0.0699
 4637SOL    HW318321   5.399   3.032   4.649  0.8392 -0.6229  0.5420
 4637SOL    MW418322   5.356   2.979   4.703  0.0095  0.7663 -0.2562
 4638SOL     OW18323   2.363   4.291   0.714  0.0264 -0.1542 -0.4684
 4638SOL    HW218324   2.363   4.359   0.781  2.2511  2.5765 -2.9538
 4638SOL    HW318325   2.419   4.222   0.750  0.8078  1.0180  0.6534
 4638SOL    MW418326   2.370   4.291   0.728 -0.0347  0.5186 -0.6844
 4639SOL     OW18327   0.689   3.454   0.060 -0.1342 -0.3358 -0.1587
 4639SOL    HW218328   0.713   3.494  -0.023  0.7590  1.4958  0.9108
 4639SOL    HW318329   0.768   3.409   0.089 -0.5954 -1.3990 -0.5130
 4639SOL    MW418330   0.703   3.453   0.053  0.4174 -0.0539 -0.1353
 4640SOL     OW18331   0.880   4.499   5.173 -0.8092  0.1279  0.1085
 4640SOL    HW218332   0.869   4.478   5.080  0.8188 -0.5460  0.0311
 4640SOL    HW318333   0.901   4.415   5.214 -2.2848  0.2797  1.2475
 4640SOL    MW418334   0.881   4.485   5.166  0.3833 -0.0979 -0.3743
 4641SOL     OW18335   6.173   4.912   0.986 -1.1348  0.1774  0.5355
 4641SOL    HW218336   6.079   4.913   1.003 -0.9893 -1.6311  1.7061
 4641SOL    HW318337   6.203   4.828   1.021  0.7370  0.1874 -0.8879
 4641SOL    MW418338   6.165   4.901   0.993 -0.3376 -0.1624 -0.3491
 4642SOL     OW18339   3.610   5.292   5.623 -0.1803 -0.0081 -0.2041
 4642SOL    HW218340   3.528   5.251   5.596  0.5163 -0.8151 -1.1699
 4642SOL    HW318341   3.654   5.314   5.541  0.9463 -0.3552  0.2971
 4642SOL    MW418342   3.605   5.290   5.609 -0.2275 -0.3550  0.3793
 4643SOL     OW18343   2.361   0.110   2.715 -0.0420  0.3205  0.3672
 4643SOL    HW218344   2.352   0.112   2.620 -0.3573  0.3410  0.3975
 4643SOL    HW318345   2.377   0.201   2.740 -1.2278  0.5169  0.4559
 4643SOL    MW418346   2.362   0.122   2.706 -0.1000  0.4244  0.6975
 4644SOL     OW18347   4.089   4.293   1.338  0.8892  0.0514  0.5765
 4644SOL    HW218348   4.078   4.385   1.360  0.1291 -0.4828  2.6075
 4644SOL    HW318349   4.028   4.279   1.265 -0.1416  0.8154  1.2630
 4644SOL    MW418350   4.080   4.303   1.331  0.3561  0.1355  0.0524
 4645SOL     OW18351   2.214   6.228   6.145 -0.2002 -0.4662  0.5288
 4645SOL    HW218352   2.203   6.148   6.093  0.0601  0.0031 -0.2722
 4645SOL    HW318353   2.304   6.223   6.177  0.2788  0.1379 -0.6547
 4645SOL    MW418354   2.225   6.217   6.142  0.2541 -0.5762  0.1203
 4646SOL     OW18355   4.597   5.809   0.753 -0.2934 -0.2294 -0.2079
 4646SOL    HW218356   4.681   5.765   0.741  0.2451  0.9053 -0.7401
 4646SOL    HW318357   4.608   5.894   0.711 -1.7956 -0.1517 -0.4965
 4646SOL    MW418358   4.609   5.814   0.746 -0.2980  0.4101 -0.2870
 4647SOL     OW18359   2.881   3.554   5.016  0.3370 -0.0287 -0.2779
 4647SOL    HW218360   2.914   3.556   4.926 -0.0374 -0.0740 -0.4175
 4647SOL    HW318361   2.788   3.535   5.007 -0.3326  2.7052 -0.0410
 4647SOL    MW418362   2.873   3.552   5.003 -0.5364  0.3620 -0.5365
 4648SOL     OW18363   4.841   6.074   2.688  0.5167  0.2395  0.5889
 4648SOL    HW218364   4.787   6.101   2.762 -0.7913 -0.4607 -0.0689
 4648SOL    HW318365   4.795   5.998   2.652  0.5613  1.1582 -1.5317
 4648SOL    MW418366   4.827   6.067   2.693 -0.0818  0.4027  0.8965
 4649SOL     OW18367   1.590   1.796   0.518 -0.8923 -0.4151 -0.0381
 4649SOL    HW218368   1.581   1.703   0.500 -2.0813 -0.2867 -0.2212
 4649SOL    HW318369   1.668   1.823   0.471  0.0341 -1.5071  0.8096
 4649SOL    MW418370   1.599   1.788   0.510  0.4606  0.0608  0.1452
 4650SOL     OW18371   2.011   1.632   5.070 -0.1619  0.3768  0.5388
 4650SOL    HW218372   1.966   1.607   4.989  0.5345  1.2619 -0.1395
 4650SOL    HW318373   2.092   1.673   5.041  0.6822 -0.3936  1.7245
 4650SOL    MW418374   2.016   1.634   5.056 -0.7381  0.2415  0.5770
 4651SOL     OW18375   1.040   5.866   0.080 -0.5708  0.1522  0.1328
 4651SOL    HW218376   1.046   5.870  -0.015 -0.1218  1.2606  0.1983
 4651SOL    HW318377   1.130   5.873   0.110 -0.6633 -0.7032  0.6326
 4651SOL    MW418378   1.053   5.867   0.071  0.1235  0.7772  0.4082
 4652SOL     OW18379   1.542   1.318   2.477  0.8201 -0.1354  0.3381
 4652SOL    HW218380   1.634   1.300   2.458  0.8422  0.8071 -0.5342
 4652SOL    HW318381   1.532   1.299   2.570  1.6832 -1.0767  0.2619
 4652SOL    MW418382   1.553   1.313   2.487  0.0315 -0.2575  0.2649
 4653SOL     OW18383   3.834   6.263   1.611 -0.5594  0.0202  0.0702
 4653SOL    HW218384   3.753   6.312   1.597  0.5684  2.1499  0.5443
 4653SOL    HW318385   3.832   6.238   1.703 -0.1738  1.1438  0.4062
 4653SOL    MW418386   3.823   6.266   1.621 -0.0411 -0.3790  0.3137
 4654SOL     OW18387   5.807   0.856   1.883  0.6303 -0.1221 -0.3080
 4654SOL    HW218388   5.863   0.934   1.884 -0.4702  0.6967 -0.0920
 4654SOL    HW318389   5.747   0.870   1.810 -1.5325  0.7323  1.4963
 4654SOL    MW418390   5.807   0.868   1.874 -0.2885 -0.3581  0.5094
 4655SOL     OW18391   3.101   4.012   4.532 -0.2542  0.2210 -0.7689
 4655SOL    HW218392   3.054   4.027   4.450 -0.0344 -2.1059 -1.3927
 4655SOL    HW318393   3.072   3.925   4.562  0.8144  0.3562  0.8097
 4655SOL    MW418394   3.091   4.002   4.525  0.3323  0.0104 -0.1140
 4656SOL     OW18395   4.376   0.285   2.823  0.6317 -0.0366 -0.1544
 4656SOL    HW218396   4.450   0.270   2.764  3.6147  1.7497  2.7963
 4656SOL    HW318397   4.396   0.232   2.900 -1.3629  0.2716  0.6178
 4656SOL    MW418398   4.389   0.276   2.825 -0.0754 -0.7230 -0.0620
 4657SOL     OW18399   0.030   3.744   5.162 -0.2078 -0.0214 -0.5081
 4657SOL    HW218400   0.046   3.659   5.202  3.0454  0.0823 -1.3003
 4657SOL    HW318401   0.018   3.725   5.069 -1.4846  0.2419 -0.4068
 4657SOL    MW418402   0.031   3.730   5.155  0.4526 -0.5457  0.4019
 4658SOL     OW18403   2.662   2.626   6.078 -0.0139  0.4451  0.0362
 4658SOL    HW218404   2.623   2.636   5.991  1.4858 -1.1801 -0.8860
 4658SOL    HW318405   2.696   2.713   6.099  1.4873  0.4292 -2.0107
 4658SOL    MW418406   2.661   2.639   6.070 -0.5506 -0.3454  0.2213
 4659SOL     OW18407   1.971   2.183   4.655  0.7029 -0.3084 -0.3361
 4659SOL    HW218408   2.058   2.170   4.695  0.0943  0.3453  1.3129
 4659SOL    HW318409   1.913   2.127   4.707 -0.0610  0.1868 -0.6455
 4659SOL    MW418410   1.975   2.174   4.667  0.5739 -0.0874  0.0954
 4660SOL     OW18411   3.596   4.553   2.344  0.5572 -0.1753  0.5344
 4660SOL    HW218412   3.669   4.554   2.406  2.7720 -1.3235 -1.8574
 4660SOL    HW318413   3.579   4.646   2.326 -0.6597  0.2232  3.2831
 4660SOL    MW418414   3.604   4.566   2.350  0.0370  0.5211  0.4003
 4661SOL     OW18415   1.485   5.022   0.209 -0.1463  0.4475  0.4491
 4661SOL    HW218416   1.446   4.937   0.186 -0.4304  0.4374  0.9696
 4661SOL    HW318417   1.463   5.035   0.301  0.7202  0.6429  0.6349
 4661SOL    MW418418   1.477   5.012   0.218 -0.1121  0.0548 -0.0252
 4662SOL     OW18419   0.283   1.891   1.260  0.8027 -0.7646 -0.5196
 4662SOL    HW218420   0.375   1.866   1.256  1.1208  0.2873 -0.0690
 4662SOL    HW318421   0.244   1.829   1.322  0.7852 -2.3723 -2.0487
 4662SOL    MW418422   0.290   1.879   1.267 -0.2919  0.5430  0.0079
 4663SOL     OW18423   2.181   0.641   0.943 -0.1801 -0.0616 -0.3901
 4663SOL    HW218424   2.130   0.695   1.004  0.0974  0.3204 -0.4952
 4663SOL    HW318425   2.117   0.611   0.878 -0.5481 -0.7548  0.2793
 4663SOL    MW418426   2.166   0.644   0.943  0.3587 -0.0041 -0.8297
 4664SOL     OW18427   5.044   4.594   2.500  0.4219 -0.1198 -0.4553
 4664SOL    HW218428   4.984   4.534   2.455  0.2000  0.6129 -1.1436
 4664SOL    HW318429   5.127   4.547   2.503 -0.1831 -1.1891  0.5852
 4664SOL    MW418430   5.047   4.580   2.495 -0.1761  0.1395 -0.2947
 4665SOL     OW18431   3.075   0.179   4.693  0.6490  0.6177  0.1724
 4665SOL    HW218432   3.030   0.094   4.690  1.7797  0.0080 -0.1585
 4665SOL    HW318433   3.152   0.167   4.637  1.4228  1.5139  1.0237
 4665SOL    MW418434   3.079   0.166   4.685  0.1623 -0.4368 -0.0010
 4666SOL     OW18435   2.603   5.351   2.483 -0.2768  0.7991 -0.4018
 4666SOL    HW218436   2.537   5.298   2.438 -0.0079  1.4166 -1.5455
 4666SOL    HW318437   2.623   5.301   2.563 -0.0668 -0.8081 -1.4225
 4666SOL    MW418438   2.597   5.337   2.488  0.4024 -0.5338  0.2026
 4667SOL     OW18439   6.292   0.478   0.542  0.1012  0.1195 -0.6108
 4667SOL    HW218440   6.348   0.530   0.599 -0.3069  0.6645 -0.7031
 4667SOL    HW318441   6.235   0.429   0.601 -0.1371  0.4784 -0.5380
 4667SOL    MW418442   6.292   0.478   0.557 -0.5977  0.2822 -0.1803
 4668SOL     OW18443   1.933   3.875   0.643 -0.0177  0.2572  0.3339
 4668SOL    HW218444   2.027   3.867   0.657  0.0163  1.0977  0.6236
 4668SOL    HW318445   1.902   3.929   0.715 -0.3160  2.1741 -1.1402
 4668SOL    MW418446   1.941   3.881   0.654 -0.0988  0.0652 -0.0014
 4669SOL     OW18447   3.558   2.235   2.661 -0.2079 -0.0761  0.2293
 4669SOL    HW218448   3.502   2.175   2.711 -0.3654 -1.8292 -1.9234
 4669SOL    HW318449   3.643   2.192   2.658  0.0791  0.4965 -0.1578
 4669SOL    MW418450   3.562   2.222   2.667  0.2011 -0.4570 -0.2265
 4670SOL     OW18451   2.168   2.524   2.019  0.2624  0.1532 -0.1764
 4670SOL    HW218452   2.169   2.605   1.967 -1.4194  0.8865  0.8394
 4670SOL    HW318453   2.260   2.497   2.022  0.5806  0.7889 -2.3886
 4670SOL    MW418454   2.181   2.531   2.013  1.0515 -1.1192  0.9013
 4671SOL     OW18455   4.175   1.941   2.825 -0.0439  0.1740  0.0551
 4671SOL    HW218456   4.152   1.854   2.857 -0.6834 -0.0693 -0.9971
 4671SOL    HW318457   4.263   1.957   2.859  0.2980 -1.1186 -0.1567
 4671SOL    MW418458   4.183   1.932   2.833  0.1790  0.2019  0.0405
 4672SOL     OW18459   3.414   0.248   1.407 -0.1380  0.0398 -0.2253
 4672SOL    HW218460   3.342   0.305   1.432 -0.1176  0.3096 -0.7653
 4672SOL    HW318461   3.424   0.262   1.313 -0.0509 -0.7542 -0.3418
 4672SOL    MW418462   3.406   0.257   1.398 -0.1032  0.1161 -0.2966
 4673SOL     OW18463   2.783   3.914   4.151  0.5336  0.0600  0.3135
 4673SOL    HW218464   2.846   3.947   4.215 -0.2181  0.7835  0.6930
 4673SOL    HW318465   2.837   3.882   4.078  1.3326  0.8831  0.5280
 4673SOL    MW418466   2.799   3.914   4.150 -0.1740 -0.1769 -0.5832
 4674SOL     OW18467   3.184   0.966   3.528 -0.1814  0.2756  0.1044
 4674SOL    HW218468   3.260   0.977   3.472 -0.2693 -0.5595 -0.1786
 4674SOL    HW318469   3.115   0.934   3.470 -0.2460 -0.6921  0.6918
 4674SOL    MW418470   3.185   0.963   3.513 -0.0746  0.3743  0.5353
 4675SOL     OW18471   1.135   1.655   5.162 -0.7154 -0.1590 -0.0351
 4675SOL    HW218472   1.128   1.737   5.212 -0.5197 -0.3569  0.3125
 4675SOL    HW318473   1.044   1.628   5.150 -0.8933  0.9560 -1.5641
 4675SOL    MW418474   1.122   1.662   5.167 -0.0098  0.3447  0.2337
 4676SOL     OW18475   0.412   4.401   4.011  0.4029  0.3205  0.1979
 4676SOL    HW218476   0.507   4.413   4.016  0.7003 -1.6764  0.1533
 4676SOL    HW318477   0.384   4.399   4.102  0.7896 -1.4085  0.3232
 4676SOL    MW418478   0.421   4.402   4.024 -0.2671 -0.2762  0.3003
 4677SOL     OW18479   6.380   1.570   2.677  0.1987 -0.4484  0.0141
 4677SOL    HW218480   6.335   1.492   2.643  0.1405  0.2209 -1.5168
 4677SOL    HW318481   6.422   1.540   2.757  2.4358 -2.8386 -1.8590
 4677SOL    MW418482   6.380   1.556   2.683 -0.5498 -0.2651 -0.5437
 4678SOL     OW18483   3.581   6.386   3.360  0.2668  0.1209  0.0977
 4678SOL    HW218484   3.620   6.434   3.434  1.5938 -0.1906 -0.3757
 4678SOL    HW318485   3.494   6.360   3.392  0.6836  0.2755  1.4351
 4678SOL    MW418486   3.575   6.389   3.374 -0.1042 -0.2036  0.1498
 4679SOL     OW18487   3.427   2.418   0.986  0.1088  0.2834 -0.0795
 4679SOL    HW218488   3.481   2.357   1.035  1.9979  0.2392 -2.0566
 4679SOL    HW318489   3.472   2.427   0.902 -0.3710  3.9859 -0.0801
 4679SOL    MW418490   3.440   2.411   0.981  0.3487 -0.5129  0.3709
 4680SOL     OW18491   3.811   5.336   2.059 -0.2984  0.2615  0.0830
 4680SOL    HW218492   3.832   5.294   2.142 -1.4163  0.1464  0.3284
 4680SOL    HW318493   3.743   5.280   2.021  0.0811  0.4072 -0.8355
 4680SOL    MW418494   3.805   5.323   2.065  0.0017 -0.6538 -0.1703
 4681SOL     OW18495   3.039   4.781   0.672 -0.1668 -0.1727  0.0722
 4681SOL    HW218496   3.057   4.760   0.764  2.1369 -1.3365 -0.5749
 4681SOL    HW318497   3.017   4.874   0.673  4.2627  1.1139  1.3874
 4681SOL    MW418498   3.038   4.790   0.685  0.2019  0.1331  0.5156
 4682SOL     OW18499   3.813   2.241   3.811  0.0499 -0.5073  0.1783
 4682SOL    HW218500   3.801   2.234   3.906 -1.6192 -1.4139 -0.0595
 4682SOL    HW318501   3.724   2.249   3.777  0.6262 -0.2934 -1.3300
 4682SOL    MW418502   3.800   2.241   3.819  0.0849  0.1803 -0.0361
 4683SOL     OW18503   3.217   6.381   1.947 -0.4245 -0.0187  0.2788
 4683SOL    HW218504   3.225   6.286   1.940 -0.3750 -0.1228  1.4957
 4683SOL    HW318505   3.220   6.398   2.041 -2.1110  1.0362  0.1936
 4683SOL    MW418506   3.218   6.371   1.959 -0.2942 -0.8472 -0.4027
 4684SOL     OW18507   2.761   1.594   0.137 -0.1369  0.2022 -0.0591
 4684SOL    HW218508   2.701   1.577   0.209 -0.4698 -0.6027 -0.5108
 4684SOL    HW318509   2.704   1.622   0.065 -0.0364 -0.9441 -0.6107
 4684SOL    MW418510   2.745   1.596   0.137  0.4474 -0.0681  0.2503
 4685SOL     OW18511   5.886   6.038   1.096 -0.3357  0.0308 -0.1377
 4685SOL    HW218512   5.880   6.124   1.054 -0.5114 -0.1226 -0.4280
 4685SOL    HW318513   5.873   5.975   1.025  0.8648 -0.2609 -0.1244
 4685SOL    MW418514   5.884   6.041   1.081  0.3448 -1.1259 -0.3349
 4686SOL     OW18515   1.759   5.588   0.815  0.3424  0.0561  0.0210
 4686SOL    HW218516   1.816   5.511   0.817  1.5169  0.9066  0.1068
 4686SOL    HW318517   1.729   5.592   0.724 -0.1794 -0.8091  0.1415
 4686SOL    MW418518   1.763   5.578   0.803 -0.1059  0.3718 -0.2661
 4687SOL     OW18519   6.258   4.986   3.602 -0.7425 -0.3823 -0.6665
 4687SOL    HW218520   6.165   4.991   3.581 -1.0875  1.1173  1.0227
 4687SOL    HW318521   6.278   4.892   3.599 -2.8206 -0.9440  0.9913
 4687SOL    MW418522   6.248   4.974   3.599 -0.4257 -0.1974 -0.0307
 4688SOL     OW18523   4.607   1.667   3.340  0.4173  0.0648 -0.4401
 4688SOL    HW218524   4.581   1.669   3.433 -1.2158  1.5345 -0.8773
 4688SOL    HW318525   4.700   1.690   3.341  0.2613  0.7554  0.7968
 4688SOL    MW418526   4.616   1.670   3.353  0.5730 -0.0481  0.3248
 4689SOL     OW18527   2.807   1.283   0.033  0.0538  0.5950  0.1612
 4689SOL    HW218528   2.792   1.270   0.127 -2.3713  1.4295 -0.0349
 4689SOL    HW318529   2.845   1.200   0.003  2.0631  0.7442  2.0468
 4689SOL    MW418530   2.810   1.270   0.042  0.5787 -0.1317  0.7756
 4690SOL     OW18531   4.165   0.449   3.706  0.4988  0.1220 -0.1298
 4690SOL    HW218532   4.221   0.371   3.705  0.2553 -0.0915 -2.2526
 4690SOL    HW318533   4.077   0.414   3.720  0.7242  0.4118  2.6515
 4690SOL    MW418534   4.161   0.434   3.708 -0.2070  0.2369 -0.4321
 4691SOL     OW18535   3.145   3.712   5.296 -0.3266 -0.0378  0.4749
 4691SOL    HW218536   3.225   3.765   5.302  0.7834 -1.7705  2.1694
 4691SOL    HW318537   3.163   3.648   5.227  0.5645 -1.6069  2.0915
 4691SOL    MW418538   3.158   3.711   5.288  0.4776 -0.3714 -0.1255
 4692SOL     OW18539   0.488   3.920   1.934 -0.1724 -0.6257  1.0478
 4692SOL    HW218540   0.469   3.827   1.925 -1.0295 -0.5622  2.0760
 4692SOL    HW318541   0.404   3.961   1.952 -0.0027  0.5310 -0.5249
 4692SOL    MW418542   0.475   3.913   1.935 -0.0165  0.2791 -0.0058
 4693SOL     OW18543   1.401   0.385   2.998 -0.3641  0.0186 -0.0844
 4693SOL    HW218544   1.395   0.332   3.077  0.5872 -1.9692 -1.2557
 4693SOL    HW318545   1.494   0.401   2.986 -0.4578 -0.0187 -0.9890
 4693SOL    MW418546   1.412   0.380   3.007 -0.6537  0.0401  0.3586
 4694SOL     OW18547   3.112   3.531   4.420  0.2103 -0.7329 -0.4840
 4694SOL    HW218548   3.128   3.604   4.360  0.0043  0.2189  0.6116
 4694SOL    HW318549   3.172   3.463   4.389  1.0987  0.2218 -0.9426
 4694SOL    MW418550   3.122   3.531   4.408  0.6291 -0.1455 -0.5398
 4695SOL     OW18551   0.819   0.056   5.772  0.0575 -0.0586 -0.4660
 4695SOL    HW218552   0.737   0.077   5.726 -0.5777 -0.0085  0.6540
 4695SOL    HW318553   0.883   0.117   5.736 -0.4048 -0.0467 -1.3060
 4695SOL    MW418554   0.816   0.067   5.761 -0.6904 -0.2997  0.0960
 4696SOL     OW18555   2.567   1.356   6.288 -0.0463 -0.5610 -0.6104
 4696SOL    HW218556   2.643   1.340   6.344  0.2064  1.6052 -0.2252
 4696SOL    HW318557   2.492   1.348   6.346  0.2595  2.5931  0.4152
 4696SOL    MW418558   2.567   1.353   6.303 -0.0000 -0.3168 -0.6868
 4697SOL     OW18559   2.517   6.398   0.639 -0.2036  0.0823 -0.3531
 4697SOL    HW218560   2.522   6.355   0.724  0.2599 -0.1239 -0.4811
 4697SOL    HW318561   2.442   6.456   0.645 -1.2123 -1.1800 -0.3822
 4697SOL    MW418562   2.508   6.400   0.651  0.2109 -0.0040 -0.0388
 4698SOL     OW18563   2.971   3.242   6.418  0.1426  0.5688  0.0176
 4698SOL    HW218564   3.004   3.326   6.451 -1.2907  0.5107  1.7470
 4698SOL    HW318565   2.879   3.241   6.444 -0.5831 -0.4107 -2.3086
 4698SOL    MW418566   2.963   3.253   6.426 -0.1803 -0.4933  0.1677
 4699SOL     OW18567   5.077   0.379   4.841  0.8496  0.4415 -0.0941
 4699SOL    HW218568   4.984   0.400   4.834  0.9462  0.8113 -0.2370
 4699SOL    HW318569   5.079   0.296   4.890  0.3832 -0.1821 -1.1007
 4699SOL    MW418570   5.065   0.371   4.847  0.3203  0.0162  0.3571
 4700SOL     OW18571   5.291   4.550   1.222  0.6952  0.6136  0.2400
 4700SOL    HW218572   5.206   4.595   1.222  1.2419  1.6754  0.7100
 4700SOL    HW318573   5.354   4.619   1.240  1.8369  0.1563 -1.7573
 4700SOL    MW418574   5.288   4.565   1.224  0.1290  0.4128  0.4440
 4701SOL     OW18575   0.242   3.100   0.822  0.0961 -0.2220 -0.0885
 4701SOL    HW218576   0.183   3.162   0.779 -0.2817 -0.7544 -0.3489
 4701SOL    HW318577   0.229   3.114   0.915 -0.3429 -0.2336 -0.1456
 4701SOL    MW418578   0.232   3.110   0.828  0.2286  0.0966 -0.2482
 4702SOL     OW18579   5.288   0.537   3.957  0.2449 -0.0515  0.2175
 4702SOL    HW218580   5.305   0.489   4.038 -0.2322 -1.3795 -0.4314
 4702SOL    HW318581   5.215   0.595   3.979 -0.6692 -1.2478  0.4616
 4702SOL    MW418582   5.280   0.539   3.970 -0.0555  0.2273  0.5129
 4703SOL     OW18583   3.916   0.206   5.367 -0.5023  0.5967  0.0540
 4703SOL    HW218584   3.977   0.216   5.294 -0.5748  0.1849 -0.0637
 4703SOL    HW318585   3.972   0.180   5.441 -0.4297  1.0075  0.1448
 4703SOL    MW418586   3.932   0.204   5.367 -0.5679 -0.4073  0.1002
 4704SOL     OW18587   1.790   1.533   1.916  0.3263  0.5330 -0.6419
 4704SOL    HW218588   1.856   1.464   1.916  0.1701  0.3646  0.1888
 4704SOL    HW318589   1.769   1.545   2.009 -2.3311 -0.8900 -0.9552
 4704SOL    MW418590   1.796   1.525   1.928 -0.2803  0.1369 -0.0454
 4705SOL     OW18591   2.666   5.621   6.342  0.2428  0.0449  0.1594
 4705SOL    HW218592   2.739   5.633   6.281 -0.9948  0.3901 -1.3273
 4705SOL    HW318593   2.650   5.527   6.342 -0.8726  0.1883 -1.4978
 4705SOL    MW418594   2.674   5.610   6.334  0.1593 -0.0581 -0.0600
 4706SOL     OW18595   4.397   4.209   1.179  0.0049  0.8193 -0.1813
 4706SOL    HW218596   4.407   4.272   1.108  0.3449 -0.1894 -1.0487
 4706SOL    HW318597   4.329   4.246   1.235 -1.2598  0.9924 -1.7642
 4706SOL    MW418598   4.389   4.222   1.177 -0.6004 -0.0321 -0.5663
 4707SOL     OW18599   4.500   3.731   4.680  0.0813 -0.5576  0.0984
 4707SOL    HW218600   4.456   3.816   4.690 -2.2206 -1.3214 -2.2834
 4707SOL    HW318601   4.470   3.680   4.754 -0.5207 -0.0510  0.2163
 4707SOL    MW418602   4.490   3.736   4.691 -0.2232 -0.1660  0.2721
 4708SOL     OW18603   0.600   1.602   2.080 -0.0553  0.1418  0.0303
 4708SOL    HW218604   0.578   1.529   2.023  0.5350 -0.8641  1.0486
 4708SOL    HW318605   0.555   1.677   2.041  1.1754 -0.2689 -2.3325
 4708SOL    MW418606   0.591   1.602   2.067  0.3903  0.1920  0.2665
 4709SOL     OW18607   2.901   5.525   3.499  0.7994  0.3421 -0.2984
 4709SOL    HW218608   2.882   5.499   3.409  0.2020 -1.9778  0.4364
 4709SOL    HW318609   2.996   5.536   3.501  0.7990  0.6304 -1.2451
 4709SOL    MW418610   2.911   5.523   3.487 -0.3752  0.3403  0.1528
 4710SOL     OW18611   3.799   4.982   0.703  0.1605 -0.1532 -0.2119
 4710SOL    HW218612   3.765   4.893   0.691  1.9447 -0.7759 -1.1227
 4710SOL    HW318613   3.746   5.019   0.774 -0.3440 -2.1023  0.4956
 4710SOL    MW418614   3.788   4.975   0.711  0.1062 -0.1747 -0.3755
 4711SOL     OW18615   1.440   3.289   0.603  0.0083 -0.5262  0.2776
 4711SOL    HW218616   1.430   3.217   0.665 -1.3545 -2.7625 -2.3190
 4711SOL    HW318617   1.533   3.287   0.578  0.2375 -0.5554  1.1132
 4711SOL    MW418618   1.451   3.279   0.608  0.7875  0.1173 -0.3878
 4712SOL     OW18619   4.590   5.683   5.292  0.2643  0.3752 -0.6570
 4712SOL    HW218620   4.625   5.733   5.366  0.4665 -0.1087 -0.4153
 4712SOL    HW318621   4.542   5.747   5.240 -0.9255  0.5211  0.5367
 4712SOL    MW418622   4.588   5.698   5.295  0.6062 -0.0514 -0.1022
 4713SOL     OW18623   4.689   1.205   5.586 -0.2221  0.2332  0.1948
 4713SOL    HW218624   4.754   1.251   5.533 -0.2566  0.6822  0.5405
 4713SOL    HW318625   4.695   1.245   5.673 -0.6321 -0.0420  0.3569
 4713SOL    MW418626   4.698   1.216   5.591  0.6157 -0.4723  0.3635
 4714SOL     OW18627   4.199   4.625   1.086  0.7531 -0.3589 -0.3756
 4714SOL    HW218628   4.138   4.686   1.128 -0.2001 -0.4496 -1.5762
 4714SOL    HW318629   4.256   4.596   1.157 -1.1204 -0.9069  0.9886
 4714SOL    MW418630   4.198   4.629   1.101  0.3538  0.3033  0.1439
 4715SOL     OW18631   0.175   0.782   2.702  0.4045 -0.3849  0.1362
 4715SOL    HW218632   0.266   0.755   2.711  0.7005  0.5071 -0.1381
 4715SOL    HW318633   0.137   0.768   2.789  1.1479  0.4675  0.6085
 4715SOL    MW418634   0.182   0.777   2.715  0.8372 -0.3191  0.1064
 4716SOL     OW18635   5.823   3.523   3.092  0.0434 -0.2838  0.3371
 4716SOL    HW218636   5.740   3.484   3.066 -0.1447  1.9018 -2.9647
 4716SOL    HW318637   5.889   3.456   3.071 -0.6279 -0.6889 -0.5507
 4716SOL    MW418638   5.821   3.509   3.086 -0.1811 -0.7922 -0.2938
 4717SOL     OW18639   3.655   0.487   0.549 -0.0050  0.4238  0.2379
 4717SOL    HW218640   3.601   0.438   0.486 -0.8091 -0.1994  1.3702
 4717SOL    HW318641   3.741   0.447   0.543  0.2233  1.1043 -1.2513
 4717SOL    MW418642   3.659   0.475   0.540  0.4768 -0.4209  0.5228
 4718SOL     OW18643   2.986   3.269   4.400  0.1779 -0.5701 -0.1008
 4718SOL    HW218644   2.974   3.359   4.370  1.3121 -0.2272  0.4124
 4718SOL    HW318645   2.915   3.255   4.462  0.9773  0.6056  1.1544
 4718SOL    MW418646   2.975   3.279   4.404  0.0931  0.0960 -0.6307
 4719SOL     OW18647   4.495   0.882   1.298 -0.2788  0.0876  0.3148
 4719SOL    HW218648   4.541   0.928   1.228 -0.0539  1.3725  1.2689
 4719SOL    HW318649   4.547   0.900   1.377 -1.7184  0.5349  1.2056
 4719SOL    MW418650   4.508   0.890   1.299 -0.1873  0.3966 -0.5181
 4720SOL     OW18651   0.967   5.531   1.486 -0.3941 -0.1577 -0.5599
 4720SOL    HW218652   1.004   5.446   1.459 -1.1465 -1.1472  1.3117
 4720SOL    HW318653   0.976   5.586   1.409  1.5639 -1.4567 -1.3556
 4720SOL    MW418654   0.973   5.527   1.472 -0.0922 -0.4969  0.4072
 4721SOL     OW18655   2.207   1.459   4.011 -0.0781 -0.0583  0.5302
 4721SOL    HW218656   2.124   1.418   4.036 -0.4158 -0.6477 -1.4059
 4721SOL    HW318657   2.248   1.396   3.953  2.5615 -0.5177  2.7176
 4721SOL    MW418658   2.201   1.445   4.007  0.1368 -0.3371  0.2769
 4722SOL     OW18659   3.176   5.555   3.485  0.3358 -0.3645  0.0796
 4722SOL    HW218660   3.208   5.470   3.517  1.3718 -0.5593 -1.3541
 4722SOL    HW318661   3.194   5.553   3.391  0.2901  1.4174  0.0017
 4722SOL    MW418662   3.183   5.543   3.477  0.6426 -0.1906  0.2852
 4723SOL     OW18663   3.852   0.519   3.599 -0.2744  0.7913 -0.3135
 4723SOL    HW218664   3.901   0.513   3.517 -0.4443 -0.0994 -0.3609
 4723SOL    HW318665   3.857   0.612   3.624  2.3762  0.5583  0.2705
 4723SOL    MW418666   3.859   0.531   3.592  0.5875 -0.4785 -0.3804
 4724SOL     OW18667   2.391   3.680   5.648 -0.0466  0.1093 -0.0479
 4724SOL    HW218668   2.394   3.636   5.562 -1.5331  2.5619 -1.4730
 4724SOL    HW318669   2.377   3.772   5.627  3.3505  1.5102  2.7489
 4724SOL    MW418670   2.390   3.686   5.634 -0.0498  0.3030 -0.0352
 4725SOL     OW18671   1.291   6.174   4.770  0.1285 -0.2955  0.0053
 4725SOL    HW218672   1.236   6.109   4.728  0.4633 -0.5910  0.0140
 4725SOL    HW318673   1.365   6.124   4.805  0.8657  0.2116 -0.7968
 4725SOL    MW418674   1.294   6.159   4.769  0.3355 -0.2907 -0.5408
 4726SOL     OW18675   5.513   1.080   1.219  0.3604 -0.1247 -0.4531
 4726SOL    HW218676   5.555   1.010   1.270 -0.1128 -0.3299 -0.3357
 4726SOL    HW318677   5.585   1.123   1.173  0.5694 -1.3674 -1.3674
 4726SOL    MW418678   5.528   1.076   1.220 -0.6661 -0.2358  0.6245
 4727SOL     OW18679   0.502   2.811   2.674 -0.5136  0.5088  0.0356
 4727SOL    HW218680   0.527   2.880   2.613 -0.0041  0.7962  0.5639
 4727SOL    HW318681   0.572   2.746   2.668 -0.8704  0.1479 -0.2838
 4727SOL    MW418682   0.515   2.812   2.665 -0.3605 -0.3225 -0.1907
 4728SOL     OW18683   4.469   6.385   2.480 -0.4109  0.2456 -0.4721
 4728SOL    HW218684   4.551   6.337   2.473 -0.3559  0.3016 -0.2009
 4728SOL    HW318685   4.491   6.475   2.457 -0.5305  0.1329 -1.0659
 4728SOL    MW418686   4.482   6.391   2.476  0.5046 -0.0590 -0.0423
 4729SOL     OW18687   5.457   2.405   2.697  0.1472  0.1880  0.0453
 4729SOL    HW218688   5.410   2.453   2.765 -0.3225  1.3581 -1.0407
 4729SOL    HW318689   5.398   2.334   2.673  0.8287 -0.9647  1.6413
 4729SOL    MW418690   5.443   2.402   2.703  0.7828  0.4988 -0.6408
 4730SOL     OW18691   3.063   4.711   1.610 -0.7989 -0.5536  0.0858
 4730SOL    HW218692   3.142   4.675   1.569  0.6126  2.4713 -0.1317
 4730SOL    HW318693   2.992   4.683   1.552  0.4355 -1.2347 -1.1732
 4730SOL    MW418694   3.064   4.702   1.597 -0.3777 -0.9865 -0.4641
 4731SOL     OW18695   1.412   4.548   5.368  0.1771  0.4490  0.1187
 4731SOL    HW218696   1.329   4.504   5.349 -0.1220  0.9650  0.2077
 4731SOL    HW318697   1.421   4.542   5.463  0.6516 -0.3283  0.0261
 4731SOL    MW418698   1.402   4.541   5.378 -0.0954  0.0217 -0.2227
 4732SOL     OW18699   4.636   4.122   0.214  0.0473  0.1242  0.4282
 4732SOL    HW218700   4.571   4.187   0.187 -1.9768 -1.5168  1.1385
 4732SOL    HW318701   4.652   4.069   0.136 -0.3236 -0.1805  0.5618
 4732SOL    MW418702   4.630   4.124   0.200  0.1404  0.2364  0.1182
 4733SOL     OW18703   1.323   3.064   2.010 -0.5491  0.3196  0.0613
 4733SOL    HW218704   1.387   3.105   1.953  0.8220 -0.3903  1.0328
 4733SOL    HW318705   1.290   2.989   1.960  0.0542  0.1650 -0.1053
 4733SOL    MW418706   1.327   3.059   1.996 -0.2859  0.6984 -0.4928
 4734SOL     OW18707   3.923   2.984   5.522 -0.0661  0.4341 -0.2398
 4734SOL    HW218708   3.943   2.948   5.435  2.1503  0.8049  0.0467
 4734SOL    HW318709   3.828   2.982   5.528 -0.2059 -0.9315 -2.1090
 4734SOL    MW418710   3.913   2.979   5.511 -0.3907  0.2898  0.2429
 4735SOL     OW18711   2.258   2.723   6.068  0.0223 -0.1048 -0.4265
 4735SOL    HW218712   2.345   2.747   6.099  0.5310 -2.7018  0.4524
 4735SOL    HW318713   2.201   2.739   6.142 -0.0160  0.3510 -0.5540
 4735SOL    MW418714   2.262   2.728   6.082 -0.0660  0.1128 -0.4926
 4736SOL     OW18715   5.038   2.142   4.489 -0.1494 -0.3254 -0.3350
 4736SOL    HW218716   5.111   2.150   4.428 -0.4825  0.4274 -0.6546
 4736SOL    HW318717   5.076   2.159   4.575  0.4736 -2.1472 -0.2150
 4736SOL    MW418718   5.053   2.145   4.492 -0.3452  0.4926  0.2651
 4737SOL     OW18719   0.153   2.993   5.475 -0.0388 -0.5077  0.0224
 4737SOL    HW218720   0.234   2.990   5.527 -0.7410 -0.4178  1.1436
 4737SOL    HW318721   0.092   2.938   5.523 -0.8578 -0.0147 -0.4406
 4737SOL    MW418722   0.156   2.986   5.488  0.1841  0.2542  0.1933
 4738SOL     OW18723   5.309   5.752   2.882 -0.4354  0.0680  0.1408
 4738SOL    HW218724   5.223   5.721   2.855  0.3146 -1.3644 -0.6828
 4738SOL    HW318725   5.362   5.673   2.891  1.5740  1.0322 -2.1286
 4738SOL    MW418726   5.305   5.738   2.880 -0.5741  0.1325 -0.4776
 4739SOL     OW18727   2.979   5.886   0.899 -0.6474  0.1672  0.0014
 4739SOL    HW218728   3.073   5.889   0.879 -0.6095 -0.5600  0.0370
 4739SOL    HW318729   2.944   5.967   0.863 -0.0124  0.4233 -0.0523
 4739SOL    MW418730   2.987   5.897   0.892  0.4206  0.0151 -0.3045
 4740SOL     OW18731   5.790   2.381   0.599 -0.2858 -0.4639 -0.5567
 4740SOL    HW218732   5.781   2.380   0.504 -1.7041  0.7430 -0.4880
 4740SOL    HW318733   5.713   2.333   0.631 -0.1920 -0.2632 -0.0170
 4740SOL    MW418734   5.779   2.375   0.591 -0.0447 -0.0251  0.7368
 4741SOL     OW18735   6.394   6.415   5.381 -0.2396  0.1142 -0.0340
 4741SOL    HW218736   6.450   6.491   5.368  0.3502 -0.3733 -0.3856
 4741SOL    HW318737   6.390   6.404   5.476 -0.2073  0.4873  0.0118
 4741SOL    MW418738   6.401   6.424   5.392  0.3696 -0.1619 -0.3133
 4742SOL     OW18739   0.607   3.415   5.968  0.1069 -0.2898 -1.0195
 4742SOL    HW218740   0.567   3.334   6.000  0.0917  0.1997  0.2658
 4742SOL    HW318741   0.535   3.478   5.967  0.5022  0.1830 -0.2088
 4742SOL    MW418742   0.592   3.412   5.972 -0.6867  0.0960 -0.1584
 4743SOL     OW18743   6.368   1.670   5.328 -0.1946 -0.1566 -0.4929
 4743SOL    HW218744   6.282   1.706   5.349  0.2975  0.3153  0.7801
 4743SOL    HW318745   6.363   1.579   5.355  0.3677  0.3946  1.6328
 4743SOL    MW418746   6.356   1.663   5.334 -0.0120  0.5117 -0.4853
 4744SOL     OW18747   4.167   3.413   0.642  0.1501 -0.5027 -0.3018
 4744SOL    HW218748   4.081   3.372   0.630 -0.6152  1.0903 -0.4867
 4744SOL    HW318749   4.173   3.476   0.571  0.9562  0.2407  0.4088
 4744SOL    MW418750   4.156   3.416   0.631 -0.1159 -0.5172 -0.6239
 4745SOL     OW18751   3.618   3.702   1.520 -0.8613  0.3935 -0.0780
 4745SOL    HW218752   3.554   3.764   1.485  0.4159  0.9754 -1.5022
 4745SOL    HW318753   3.696   3.714   1.465  0.1118 -1.0490  0.9053
 4745SOL    MW418754   3.620   3.712   1.508 -0.7619 -0.7359  0.0009
 4746SOL     OW18755   3.341   2.706   1.206  0.0029 -0.7133  0.4727
 4746SOL    HW218756   3.431   2.726   1.182 -0.3916 -0.0727 -0.5429
 4746SOL    HW318757   3.309   2.652   1.134 -0.2122 -1.5391  1.1786
 4746SOL    MW418758   3.349   2.702   1.194  0.1752 -0.4935 -0.4501
 4747SOL     OW18759   4.876   0.135   3.272  0.3862  0.4859 -0.5024
 4747SOL    HW218760   4.947   0.189   3.240  0.1342  0.8726 -0.4093
 4747SOL    HW318761   4.919   0.059   3.311  0.7225  0.2863 -1.2317
 4747SOL    MW418762   4.891   0.132   3.273  0.3941 -0.2548 -0.2034
 4748SOL     OW18763   3.313   1.364   4.279  0.2142 -0.1804 -0.5998
 4748SOL    HW218764   3.307   1.269   4.286 -1.3302 -0.2108 -1.7695
 4748SOL    HW318765   3.371   1.379   4.205 -0.0353 -0.2238 -0.8046
 4748SOL    MW418766   3.319   1.353   4.271  0.4456  0.0873 -0.0241
 4749SOL     OW18767   5.821   0.931   5.229 -0.4191 -0.1256 -0.2196
 4749SOL    HW218768   5.840   1.025   5.223  0.0354 -0.0427  1.7929
 4749SOL    HW318769   5.773   0.922   5.310  2.2417 -1.9699  1.3019
 4749SOL    MW418770   5.817   0.942   5.239 -0.1847  0.1373  0.4702
 4750SOL     OW18771   3.334   6.273   5.273  0.8022  0.3991 -0.7260
 4750SOL    HW218772   3.264   6.303   5.330  0.3167 -2.7693  0.5650
 4750SOL    HW318773   3.356   6.186   5.306  2.3567 -0.5189 -3.7763
 4750SOL    MW418774   3.328   6.265   5.285 -0.0474 -0.1450 -0.6379
 4751SOL     OW18775   3.603   3.943   2.984  0.4717 -0.4591  0.2269
 4751SOL    HW218776   3.558   3.975   3.062  2.1592  0.6875  0.7831
 4751SOL    HW318777   3.673   4.007   2.969  1.5899 -1.8901 -0.9013
 4751SOL    MW418778   3.606   3.956   2.992  0.0981  0.4260 -0.1997
 4752SOL     OW18779   4.003   4.125   5.363 -0.1461  0.0745 -0.1416
 4752SOL    HW218780   3.994   4.075   5.445 -0.2038 -1.3018 -0.9461
 4752SOL    HW318781   4.007   4.057   5.295  0.6278  1.1634 -1.2141
 4752SOL    MW418782   4.003   4.109   5.365  0.2230 -0.2579 -0.3404
 4753SOL     OW18783   0.244   4.166   4.014  0.3840 -0.5327 -0.1785
 4753SOL    HW218784   0.312   4.232   3.999 -0.0020  0.2883  1.5141
 4753SOL    HW318785   0.162   4.214   4.005  0.0578 -1.1302 -0.4260
 4753SOL    MW418786   0.243   4.181   4.011  0.3902 -0.2314 -0.3367
 4754SOL     OW18787   4.448   2.270   5.371  0.0226  0.5438 -0.4475
 4754SOL    HW218788   4.379   2.211   5.402  0.9274  0.1690  0.9482
 4754SOL    HW318789   4.479   2.229   5.290 -0.0495 -0.3676 -0.0331
 4754SOL    MW418790   4.443   2.256   5.364  0.0312 -0.0380  0.0350
 4755SOL     OW18791   0.435   1.595   0.885 -0.4553  0.1531  0.2995
 4755SOL    HW218792   0.375   1.575   0.812 -1.0186  0.6048  0.6272
 4755SOL    HW318793   0.500   1.653   0.846 -0.8818  0.5736  0.1934
 4755SOL    MW418794   0.436   1.600   0.870 -0.7040  0.6906 -0.4755
 4756SOL     OW18795   4.584   4.705   2.030 -0.0818  0.4087 -0.0932
 4756SOL    HW218796   4.522   4.642   1.994 -2.0434  1.2640  1.5566
 4756SOL    HW318797   4.587   4.775   1.965  0.8451 -0.6090 -1.1742
 4756SOL    MW418798   4.576   4.706   2.017  0.4531 -0.2715 -0.0852
 4757SOL     OW18799   1.898   0.927   2.506 -0.2997 -0.3145  0.0034
 4757SOL    HW218800   1.960   0.972   2.563 -2.0972  1.2335  0.8530
 4757SOL    HW318801   1.812   0.951   2.541 -1.4338 -0.7181 -2.3341
 4757SOL    MW418802   1.895   0.936   2.519  0.1190  0.4984  0.1470
 4758SOL     OW18803   2.550   1.362   0.709 -0.1040  0.7406 -0.4410
 4758SOL    HW218804   2.632   1.340   0.664 -0.0474  0.6374 -0.2885
 4758SOL    HW318805   2.561   1.453   0.735  0.2170  0.5540  0.1157
 4758SOL    MW418806   2.563   1.371   0.707 -0.3055 -0.4843 -0.1581
 4759SOL     OW18807   2.315   2.255   3.169  0.2555  0.2959  0.8721
 4759SOL    HW218808   2.303   2.350   3.161 -0.5963  0.1566  0.4294
 4759SOL    HW318809   2.229   2.223   3.198 -0.5996 -0.7424 -2.4200
 4759SOL    MW418810   2.302   2.264   3.172 -0.6505  0.0212 -0.0263
 4760SOL     OW18811   1.348   5.869   0.106 -0.0780 -0.0847  0.9656
 4760SOL    HW218812   1.314   5.798   0.161 -2.4131  0.5075  0.3699
 4760SOL    HW318813   1.330   5.840   0.017  0.9629  0.3025  0.6191
 4760SOL    MW418814   1.341   5.856   0.102  0.0045  0.4975 -0.2353
 4761SOL     OW18815   2.984   4.067   4.290 -0.3967  0.3910 -0.1574
 4761SOL    HW218816   3.070   4.052   4.251 -0.3146  1.0078 -0.2293
 4761SOL    HW318817   2.973   4.162   4.287 -0.4713  0.4374  1.1519
 4761SOL    MW418818   2.994   4.078   4.285 -0.4715 -0.6837 -0.1161
 4762SOL     OW18819   0.389   3.393   1.661  1.1781  0.6191 -0.4101
 4762SOL    HW218820   0.363   3.324   1.599  0.5357  0.3887  0.1024
 4762SOL    HW318821   0.306   3.421   1.700  1.3037  2.4055 -1.3529
 4762SOL    MW418822   0.375   3.387   1.658 -0.1363  0.2560  0.1004
 4763SOL     OW18823   1.704   3.780   2.952 -0.1643  0.4048 -0.0099
 4763SOL    HW218824   1.721   3.732   3.033 -0.8058  0.6488  0.2771
 4763SOL    HW318825   1.643   3.849   2.978  1.3529  1.8876 -0.2321
 4763SOL    MW418826   1.698   3.783   2.966 -0.0159 -0.1331 -0.1758
 4764SOL     OW18827   5.319   2.698   6.343 -0.2019  0.0108  0.1646
 4764SOL    HW218828   5.407   2.662   6.352  0.0275  0.3741 -0.5635
 4764SOL    HW318829   5.321   2.779   6.394 -0.3513 -0.3729  0.7881
 4764SOL    MW418830   5.331   2.704   6.351 -0.4810  0.8111  0.2145
 4765SOL     OW18831   3.133   4.671   1.215  0.4466  0.7671  0.0944
 4765SOL    HW218832   3.159   4.598   1.271 -0.7286  1.8944  2.2634
 4765SOL    HW318833   3.190   4.743   1.242 -1.2972  1.8120  1.1627
 4765SOL    MW418834   3.144   4.671   1.226  0.1399  0.8064 -0.3145
 4766SOL     OW18835   2.309   0.556   1.555 -0.0702 -0.2514  0.0992
 4766SOL    HW218836   2.290   0.649   1.540  1.6327  0.1757  0.4083
 4766SOL    HW318837   2.352   0.554   1.640  1.0082 -1.1595 -0.4468
 4766SOL    MW418838   2.312   0.568   1.564 -0.0957 -0.1410 -0.6620
 4767SOL     OW18839   0.100   1.020   2.364 -0.8281 -0.4529 -0.1599
 4767SOL    HW218840   0.093   1.112   2.342 -0.7804 -0.5227 -0.4677
 4767SOL    HW318841   0.121   1.019   2.457  1.5444 -0.0843 -0.6362
 4767SOL    MW418842   0.102   1.032   2.373  0.1672  0.1827  0.1690
 4768SOL     OW18843   3.712   5.996   2.374 -0.0859 -0.2526 -0.3202
 4768SOL    HW218844   3.677   5.933   2.311  0.3671  0.2780 -1.1257
 4768SOL    HW318845   3.638   6.016   2.432  0.0725 -2.3923  0.6995
 4768SOL    MW418846   3.697   5.991   2.373 -0.0503  0.4844 -0.2962
 4769SOL     OW18847   2.680   1.491   3.886 -0.0437 -0.0883  0.2392
 4769SOL    HW218848   2.771   1.518   3.878  0.1523 -1.0170 -1.0093
 4769SOL    HW318849   2.675   1.408   3.838 -1.5750  0.0348  0.1242
 4769SOL    MW418850   2.691   1.484   3.879  0.1295  0.3539  0.3697
 4770SOL     OW18851   0.212   1.391   2.508 -0.3281  0.1766 -0.1392
 4770SOL    HW218852   0.293   1.385   2.559 -0.0744 -0.8162 -0.6279
 4770SOL    HW318853   0.217   1.475   2.464  1.0837 -0.4252 -1.1930
 4770SOL    MW418854   0.223   1.401   2.509 -0.5060 -0.0421  0.5978
 4771SOL     OW18855   0.820   2.659   4.648 -0.0822 -0.6914 -0.0925
 4771SOL    HW218856   0.893   2.637   4.590  0.7128  0.5599  0.4095
 4771SOL    HW318857   0.859   2.663   4.736 -0.9692 -1.0563  0.3281
 4771SOL    MW418858   0.835   2.656   4.652  0.1383  0.0568  0.7686
 4772SOL     OW18859   4.770   6.324   4.594 -0.0174 -0.0433 -0.3641
 4772SOL    HW218860   4.738   6.247   4.641 -2.6656  0.9819 -0.3096
 4772SOL    HW318861   4.842   6.356   4.648 -1.9755  0.2131  2.3547
 4772SOL    MW418862   4.775   6.318   4.608  0.3482  0.0250 -0.2765
 4773SOL     OW18863   6.384   3.406   0.825 -0.4224  0.1381 -0.5964
 4773SOL    HW218864   6.289   3.415   0.821 -0.5210 -0.3572  0.3776
 4773SOL    HW318865   6.398   3.314   0.850  0.2911  0.3837 -0.0703
 4773SOL    MW418866   6.373   3.395   0.827  0.0438 -0.1151 -0.4969
 4774SOL     OW18867   3.426   0.586   5.109 -0.1753 -0.0732 -0.1331
 4774SOL    HW218868   3.522   0.583   5.113 -0.1774 -3.1523 -0.2493
 4774SOL    HW318869   3.407   0.622   5.022  0.8118  1.2473  0.1550
 4774SOL    MW418870   3.436   0.591   5.098  0.0751  0.1964 -0.3220
 4775SOL     OW18871   2.990   5.611   5.604  0.0458  0.2670 -0.1856
 4775SOL    HW218872   2.925   5.541   5.608  2.7141 -2.3745  0.2294
 4775SOL    HW318873   3.065   5.578   5.654  3.2160  1.4116 -3.6515
 4775SOL    MW418874   2.992   5.597   5.611  0.2144  0.3271  0.2545
 4776SOL     OW18875   0.305   4.217   3.515  0.4172  0.1393 -0.8257
 4776SOL    HW218876   0.369   4.272   3.559  0.4448  1.2791 -2.1906
 4776SOL    HW318877   0.268   4.162   3.584  0.3486  1.9131  0.6248
 4776SOL    MW418878   0.308   4.217   3.530 -0.2819  0.0606  0.6186
 4777SOL     OW18879   4.253   1.966   2.513 -0.0906 -0.2477 -0.4303
 4777SOL    HW218880   4.208   1.960   2.598  0.7395 -0.3453  0.0145
 4777SOL    HW318881   4.196   2.022   2.461  0.4804  1.7558  0.9599
 4777SOL    MW418882   4.239   1.973   2.518  0.0387  0.7787  0.0923
 4778SOL     OW18883   4.499   3.708   1.943  0.3999  0.1894 -0.0679
 4778SOL    HW218884   4.437   3.642   1.976  0.4743  0.3870  0.4867
 4778SOL    HW318885   4.453   3.748   1.869 -0.5842  1.0352  0.9641
 4778SOL    MW418886   4.485   3.704   1.938  0.3871 -0.0001 -0.2811
 4779SOL     OW18887   2.967   3.306   3.485 -0.6140 -0.3457 -0.2997
 4779SOL    HW218888   2.949   3.397   3.506 -0.4575 -0.2270 -0.6694
 4779SOL    HW318889   2.998   3.308   3.394 -0.3756 -0.7362 -0.2292
 4779SOL    MW418890   2.969   3.318   3.476  0.2663  0.0869 -0.2799
 4780SOL     OW18891   3.924   4.935   3.150 -0.1827 -0.3481  0.5235
 4780SOL    HW218892   3.887   4.892   3.227  2.4635 -0.0851  2.0413
 4780SOL    HW318893   3.987   4.998   3.185 -0.3383  1.2609 -1.8216
 4780SOL    MW418894   3.927   4.938   3.165 -0.0126  0.2052 -0.7648
 4781SOL     OW18895   4.901   1.079   2.315 -0.7206  0.0954 -0.5557
 4781SOL    HW218896   4.932   1.126   2.238 -0.0183  0.8005  0.1292
 4781SOL    HW318897   4.951   1.117   2.387 -1.6330 -0.2811  0.2958
 4781SOL    MW418898   4.912   1.090   2.314  0.2611  0.0045 -0.1889
 4782SOL     OW18899   0.427   0.730   3.976 -0.2787 -0.1160  0.2165
 4782SOL    HW218900   0.396   0.674   4.047 -1.5753 -0.2995 -0.4630
 4782SOL    HW318901   0.427   0.818   4.013  1.4133 -0.4604  1.1739
 4782SOL    MW418902   0.423   0.734   3.990 -0.4355  0.2276 -0.3624
 4783SOL     OW18903   1.801   3.814   0.390 -0.2716 -0.1218 -0.0029
 4783SOL    HW218904   1.874   3.844   0.444 -0.0971 -1.4559  0.5444
 4783SOL    HW318905   1.730   3.799   0.453 -0.2887 -1.0168 -0.2235
 4783SOL    MW418906   1.801   3.816   0.405  0.1568 -0.3477  0.0041
 4784SOL     OW18907   3.721   6.053   6.402  0.2499  0.3790 -0.3252
 4784SOL    HW218908   3.628   6.077   6.398  0.5577  1.5979 -0.8202
 4784SOL    HW318909   3.722   5.958   6.396 -0.9084  0.4168 -1.8867
 4784SOL    MW418910   3.709   6.044   6.400  0.3115 -0.4733 -0.4166
 4785SOL     OW18911   2.454   4.073   3.241 -0.6052 -0.1139  0.3957
 4785SOL    HW218912   2.537   4.071   3.288  0.0032 -0.2969 -0.6444
 4785SOL    HW318913   2.445   3.985   3.204 -1.0495  0.0307  0.1531
 4785SOL    MW418914   2.463   4.061   3.242  0.3352  0.5423  0.7132
 4786SOL     OW18915   4.272   0.466   1.572  0.0774  0.4273 -0.0384
 4786SOL    HW218916   4.287   0.470   1.667  0.1454  1.1869 -0.0758
 4786SOL    HW318917   4.325   0.391   1.543 -0.1128  0.0509  0.5504
 4786SOL    MW418918   4.281   0.457   1.581  0.3531 -0.6413  0.3291
 4787SOL     OW18919   4.208   6.094   3.561 -0.4932  0.2313  0.5496
 4787SOL    HW218920   4.112   6.099   3.561 -0.4386  1.6529  1.2715
 4787SOL    HW318921   4.237   6.182   3.536  0.6282 -0.1357  0.5117
 4787SOL    MW418922   4.199   6.106   3.558  0.9752 -0.1209  0.4118
 4788SOL     OW18923   0.659   2.131   4.123 -0.2632 -0.2118  0.6457
 4788SOL    HW218924   0.590   2.064   4.131  0.0872 -0.4484  1.8820
 4788SOL    HW318925   0.653   2.181   4.204 -0.6894  1.4599 -0.3757
 4788SOL    MW418926   0.649   2.129   4.135 -0.0457  0.0502  0.9008
 4789SOL     OW18927   4.753   2.710   2.243 -0.0387 -0.0844  0.3547
 4789SOL    HW218928   4.702   2.714   2.324 -0.8014  0.0695 -0.1213
 4789SOL    HW318929   4.787   2.799   2.232 -2.6664  0.8590 -1.1739
 4789SOL    MW418930   4.751   2.723   2.252 -0.3639  0.3935  0.3488
 4790SOL     OW18931   2.734   3.167   3.697 -0.3582  0.3209 -0.1955
 4790SOL    HW218932   2.686   3.094   3.659  2.7435 -2.0107  0.0092
 4790SOL    HW318933   2.795   3.194   3.628  1.2802 -0.0178  1.0591
 4790SOL    MW418934   2.735   3.161   3.682 -0.4285 -0.1916  0.0898
 4791SOL     OW18935   2.214   2.592   3.372 -0.3094  0.1515  0.3962
 4791SOL    HW218936   2.195   2.561   3.460 -0.3670 -0.6458  0.1125
 4791SOL    HW318937   2.172   2.678   3.367 -1.1049 -0.2060  0.8305
 4791SOL    MW418938   2.206   2.599   3.383 -0.0054  0.0967  0.4416
 4792SOL     OW18939   4.080   5.698   2.566  0.0742 -0.4944 -0.3456
 4792SOL    HW218940   4.039   5.783   2.580  1.8579  0.7395 -1.9863
 4792SOL    HW318941   4.120   5.676   2.650 -0.2159  0.4182  0.0417
 4792SOL    MW418942   4.080   5.706   2.579  0.0900  0.1543 -0.0210
 4793SOL     OW18943   1.007   5.886   4.863 -0.5455 -0.0619 -0.6142
 4793SOL    HW218944   1.080   5.850   4.914 -0.7767 -0.3885 -0.5156
 4793SOL    HW318945   0.938   5.821   4.871 -0.0159 -0.9842 -2.7572
 4793SOL    MW418946   1.008   5.873   4.871 -0.0697  0.5249 -0.1817
 4794SOL     OW18947   0.202   1.727   0.662  0.2590 -0.1723 -0.0861
 4794SOL    HW218948   0.215   1.641   0.702 -0.4197 -0.5777 -0.7268
 4794SOL    HW318949   0.112   1.751   0.686  0.1778  0.0117 -0.5748
 4794SOL    MW418950   0.192   1.719   0.671 -0.5633 -0.3911 -0.1951
 4795SOL     OW18951   0.461   2.552   4.406 -0.1898 -0.3778 -0.1543
 4795SOL    HW218952   0.464   2.528   4.498  0.5395 -0.4518 -0.1883
 4795SOL    HW318953   0.392   2.618   4.400  1.3806  1.4619  0.9044
 4795SOL    MW418954   0.453   2.558   4.417  0.1253 -0.6538  0.5388
 4796SOL     OW18955   5.841   1.600   0.885  0.0256 -0.0675  0.2686
 4796SOL    HW218956   5.898   1.546   0.939  0.0813 -0.6820 -0.3965
 4796SOL    HW318957   5.875   1.689   0.896  2.5317 -0.6493 -1.7886
 4796SOL    MW418958   5.853   1.605   0.894 -0.4648  0.1581 -0.1335
 4797SOL     OW18959   3.388   0.308   4.969  0.6429  0.2980 -0.5090
 4797SOL    HW218960   3.446   0.233   4.980 -2.5527 -2.3536 -0.0237
 4797SOL    HW318961   3.401   0.361   5.048  1.7206 -0.6801 -0.0028
 4797SOL    MW418962   3.397   0.305   4.981 -0.2538  0.5524 -0.2387
 4798SOL     OW18963   2.835   3.874   6.139 -0.4583  0.1083  0.8124
 4798SOL    HW218964   2.786   3.795   6.162 -0.2472 -0.3924 -0.4189
 4798SOL    HW318965   2.845   3.920   6.222 -2.2956 -0.1825  1.2455
 4798SOL    MW418966   2.830   3.870   6.153 -0.1737  0.1917 -0.1574
 4799SOL     OW18967   0.047   1.279   2.308  0.6053 -0.0236 -0.0197
 4799SOL    HW218968   0.073   1.317   2.392 -2.1310 -1.7055  1.7344
 4799SOL    HW318969   0.106   1.320   2.244  1.4527  2.8963  2.3926
 4799SOL    MW418970   0.058   1.289   2.310  0.5024 -0.9965 -0.0944
 4800SOL     OW18971   1.825   5.417   0.002 -0.0095 -0.1226 -0.2833
 4800SOL    HW218972   1.822   5.495  -0.054  0.9613 -1.4853 -2.3619
 4800SOL    HW318973   1.779   5.350  -0.049 -1.2909 -0.8147  1.6917
 4800SOL    MW418974   1.819   5.419  -0.012 -0.2211 -0.8284 -0.0187
 4801SOL     OW18975   5.350   6.153   4.651  0.0419  0.3175 -0.7707
 4801SOL    HW218976   5.403   6.075   4.631 -1.1255 -0.8088  0.3027
 4801SOL    HW318977   5.270   6.140   4.599 -1.3188 -0.6354  1.4248
 4801SOL    MW418978   5.346   6.141   4.641 -0.2176  0.1730  0.0137
 4802SOL     OW18979   1.141   4.817   0.778 -0.1891  0.1213 -0.1209
 4802SOL    HW218980   1.099   4.902   0.765  0.0810  0.5749  1.7417
 4802SOL    HW318981   1.234   4.834   0.761 -0.4994 -0.6223 -3.0920
 4802SOL    MW418982   1.148   4.831   0.774  0.4010 -0.1716 -0.0874
 4803SOL     OW18983   1.130   5.839   3.757 -0.1774  0.6506  0.1123
 4803SOL    HW218984   1.101   5.748   3.771 -0.5432  0.6499 -0.5991
 4803SOL    HW318985   1.122   5.880   3.843 -1.7833  0.4832  0.0842
 4803SOL    MW418986   1.125   5.832   3.770  0.1277  0.5700  0.4340
 4804SOL     OW18987   3.366   4.915   4.424 -0.1956 -0.2910 -0.2790
 4804SOL    HW218988   3.437   4.924   4.488  1.4749  3.4456 -2.3231
 4804SOL    HW318989   3.408   4.934   4.340 -3.1156 -0.6791 -1.9438
 4804SOL    MW418990   3.381   4.919   4.422 -0.6213 -0.4465 -0.3225
 4805SOL     OW18991   0.123   3.262   3.367  0.2630 -0.1480 -0.7547
 4805SOL    HW218992   0.138   3.344   3.414  0.4318  0.1243 -1.2674
 4805SOL    HW318993   0.165   3.195   3.420  1.2329  0.2797 -0.9658
 4805SOL    MW418994   0.130   3.264   3.380  0.0763 -0.5866  0.1221
 4806SOL     OW18995   6.219   5.549   3.801 -0.6952  0.3959  0.2392
 4806SOL    HW218996   6.173   5.540   3.717  1.8239  0.3409 -1.2414
 4806SOL    HW318997   6.300   5.595   3.779  1.6145 -2.4639  1.9724
 4806SOL    MW418998   6.223   5.554   3.787  0.1580 -0.0701  0.0875
 4807SOL     OW18999   2.514   6.086   4.496 -0.0216 -0.3229  0.6039
 4807SOL    HW219000   2.447   6.128   4.442  0.7165  1.6115  1.0902
 4807SOL    HW319001   2.582   6.061   4.434  0.7779  1.7906  0.5299
 4807SOL    MW419002   2.514   6.088   4.481  0.3818  0.2037  0.7961
 4808SOL     OW19003   2.636   1.265   0.957  0.3381  0.1335  0.1567
 4808SOL    HW219004   2.616   1.173   0.940  0.3211  0.1315  0.1859
 4808SOL    HW319005   2.624   1.309   0.873  1.0462 -0.0105 -0.0277
 4808SOL    MW419006   2.632   1.259   0.944 -0.0434 -0.1284 -0.2152
 4809SOL     OW19007   6.089   6.343   6.119 -0.0822  0.2717  0.3677
 4809SOL    HW219008   6.054   6.354   6.207  3.0191  1.2065  1.6047
 4809SOL    HW319009   6.181   6.321   6.132 -0.2452 -3.1553 -2.6361
 4809SOL    MW419010   6.096   6.342   6.132 -0.6202  0.3541 -0.2735
 4810SOL     OW19011   3.739   2.031   2.657  0.2416  0.2569 -0.4194
 4810SOL    HW219012   3.737   1.951   2.604  2.4258  0.9952 -1.7484
 4810SOL    HW319013   3.832   2.050   2.668 -0.2050  1.5441  1.5753
 4810SOL    MW419014   3.751   2.023   2.651 -0.1276  0.0047 -0.0663
 4811SOL     OW19015   5.110   4.892   5.213 -0.2262 -0.4030 -0.4864
 4811SOL    HW219016   5.087   4.957   5.146  1.1453  0.4521 -0.1669
 4811SOL    HW319017   5.161   4.941   5.278  0.8482 -1.8001 -0.2203
 4811SOL    MW419018   5.113   4.907   5.213 -0.2186 -0.3151 -0.5959
 4812SOL     OW19019   3.367   2.605   2.331  0.0084  0.3486  0.1160
 4812SOL    HW219020   3.440   2.664   2.313 -0.0575  0.5488  0.4840
 4812SOL    HW319021   3.405   2.535   2.384 -0.0728  0.4872  0.3637
 4812SOL    MW419022   3.381   2.604   2.336 -0.1232 -0.1819 -0.1056
 4813SOL     OW19023   1.367   6.091   1.654  0.6457 -0.0284  0.3285
 4813SOL    HW219024   1.461   6.109   1.650  0.1790  2.5801 -1.3047
 4813SOL    HW319025   1.344   6.101   1.747  1.4450  2.9760  0.2897
 4813SOL    MW419026   1.376   6.094   1.666 -0.1901  1.3730  0.6373
 4814SOL     OW19027   3.748   0.131   2.728 -0.9175  0.3441 -0.1929
 4814SOL    HW219028   3.786   0.172   2.650 -0.1445  0.5065  0.2645
 4814SOL    HW319029   3.667   0.179   2.743 -0.5438  1.0221 -0.2821
 4814SOL    MW419030   3.742   0.143   2.720 -0.3264 -0.2063  0.1283
 4815SOL     OW19031   3.366   3.907   3.402  0.2596  0.3478 -0.0451
 4815SOL    HW219032   3.328   3.859   3.476 -1.2440 -0.4709 -1.2792
 4815SOL    HW319033   3.450   3.865   3.386 -0.3997 -0.9752 -0.1892
 4815SOL    MW419034   3.372   3.895   3.410  0.4351 -0.3207 -0.0917
 4816SOL     OW19035   1.982   5.017   3.836  0.5901  0.0247  0.0202
 4816SOL    HW219036   1.988   5.104   3.876  0.9690  0.7872 -1.5919
 4816SOL    HW319037   1.909   5.023   3.775  0.8607 -0.6718 -0.3902
 4816SOL    MW419038   1.973   5.029   3.833 -0.1597  0.1651 -0.1392
 4817SOL     OW19039   4.940   3.058   5.754  0.2106 -0.0024 -0.1612
 4817SOL    HW219040   4.986   3.044   5.671 -1.1967  0.1210 -0.9982
 4817SOL    HW319041   4.919   3.152   5.753  2.7328  0.7143  1.7508
 4817SOL    MW419042   4.943   3.069   5.743 -0.7910 -0.1442  0.0309
 4818SOL     OW19043   2.930   5.280   3.665 -0.5271  0.3101 -0.1642
 4818SOL    HW219044   2.892   5.356   3.621  1.0485  0.7234 -0.8903
 4818SOL    HW319045   2.889   5.278   3.751 -2.9082  0.1228 -1.2291
 4818SOL    MW419046   2.919   5.290   3.670  0.1934 -0.2879  0.1376
 4819SOL     OW19047   4.680   5.980   1.237  0.2550 -0.3126  0.3995
 4819SOL    HW219048   4.642   5.976   1.150  0.7498 -0.0241  0.1631
 4819SOL    HW319049   4.696   5.889   1.261 -1.4231 -0.5072  0.8951
 4819SOL    MW419050   4.677   5.967   1.229 -0.7947 -0.1410 -0.0289
 4820SOL     OW19051   3.089   1.857   3.641 -0.0737  0.4134  0.2636
 4820SOL    HW219052   3.080   1.950   3.622 -0.0122  0.5250  0.7622
 4820SOL    HW319053   3.172   1.832   3.600 -0.4249  0.4161 -0.4638
 4820SOL    MW419054   3.098   1.866   3.633 -0.0671 -0.1049 -0.1190
 4821SOL     OW19055   2.102   2.526   5.958  0.3009  0.5209  0.0602
 4821SOL    HW219056   2.152   2.575   6.022  0.1461  1.7005 -0.7049
 4821SOL    HW319057   2.109   2.435   5.987  0.5038  0.9892  1.5558
 4821SOL    MW419058   2.109   2.520   5.970 -0.3237 -0.2009  0.2257
 4822SOL     OW19059   0.331   2.927   6.400  0.2222  0.5845 -0.2313
 4822SOL    HW219060   0.350   2.912   6.308 -0.2665  0.0809 -0.2573
 4822SOL    HW319061   0.238   2.904   6.409  0.1532  1.0455  0.2941
 4822SOL    MW419062   0.321   2.922   6.389  0.2457  0.1448 -0.0293
 4823SOL     OW19063   2.765   5.333   2.232  0.0467  0.5187 -0.0163
 4823SOL    HW219064   2.747   5.239   2.238 -1.7879  0.5513 -2.7739
 4823SOL    HW319065   2.796   5.346   2.142 -1.0957  2.6685 -0.1818
 4823SOL    MW419066   2.766   5.322   2.221 -0.1239 -0.5114 -0.4490
 4824SOL     OW19067   1.439   2.927   4.325  0.3466  0.9221  0.2763
 4824SOL    HW219068   1.485   2.933   4.242 -0.7364  0.2966 -0.3854
 4824SOL    HW319069   1.361   2.980   4.313 -0.3182  0.0262  0.5451
 4824SOL    MW419070   1.435   2.935   4.313  0.0670 -0.2445 -0.3103
 4825SOL     OW19071   1.857   6.210   1.043 -0.1028 -0.2735 -0.7097
 4825SOL    HW219072   1.924   6.202   1.110  0.4383  2.0823 -0.8685
 4825SOL    HW319073   1.774   6.209   1.091  0.2413  0.5264 -0.0658
 4825SOL    MW419074   1.855   6.209   1.058 -0.1584  0.3716 -0.3641
 4826SOL     OW19075   4.424   2.587   2.298  0.1523 -0.2148 -0.1156
 4826SOL    HW219076   4.369   2.665   2.287  0.6316  0.1361 -0.0458
 4826SOL    HW319077   4.400   2.530   2.224 -1.7217 -0.9362  0.9818
 4826SOL    MW419078   4.414   2.590   2.287  0.3764 -0.3986 -0.2588
 4827SOL     OW19079   2.095   5.723   0.788  0.3055 -0.1172 -0.3222
 4827SOL    HW219080   2.182   5.763   0.792  1.0359 -1.7268  2.3684
 4827SOL    HW319081   2.105   5.640   0.835 -2.7285 -0.2861  0.1793
 4827SOL    MW419082   2.108   5.718   0.795 -0.1603 -0.2220  0.1812
 4828SOL     OW19083   2.636   0.295   4.439 -0.2618  0.2996 -0.0401
 4828SOL    HW219084   2.550   0.282   4.399 -0.5983  0.8340  0.5070
 4828SOL    HW319085   2.688   0.337   4.370 -0.4705  0.0871 -0.3289
 4828SOL    MW419086   2.632   0.299   4.425  0.6618  0.0009  0.2287
 4829SOL     OW19087   2.831   5.209   0.031 -0.3686 -0.9165  0.2604
 4829SOL    HW219088   2.842   5.136   0.092 -0.8762 -1.8366 -0.7236
 4829SOL    HW319089   2.880   5.183  -0.047  2.4753  1.3456  1.0832
 4829SOL    MW419090   2.839   5.196   0.029 -0.2799  0.7880  0.1302
 4830SOL     OW19091   3.234   5.997   1.386 -0.0922  0.3427  1.1882
 4830SOL    HW219092   3.262   6.017   1.476  1.6726 -1.3671  1.0822
 4830SOL    HW319093   3.140   6.011   1.387 -0.1127  0.3922  3.3049
 4830SOL    MW419094   3.225   6.002   1.398 -0.4889 -0.5131 -0.2328
 4831SOL     OW19095   6.208   0.074   2.025  0.3602  0.1548 -0.3043
 4831SOL    HW219096   6.214   0.026   2.108 -0.2973 -0.6728 -0.7106
 4831SOL    HW319097   6.201   0.005   1.959  1.3423  0.7956 -1.0964
 4831SOL    MW419098   6.208   0.058   2.027  0.1040  1.0555  0.6573
 4832SOL     OW19099   5.404   1.232   0.864  0.4082  0.1758 -0.0959
 4832SOL    HW219100   5.333   1.235   0.800  0.2299  0.5196  0.1115
 4832SOL    HW319101   5.483   1.247   0.812  0.2139  1.0067 -0.1643
 4832SOL    MW419102   5.405   1.235   0.848  0.5315 -0.1780  0.1168
 4833SOL     OW19103   0.723   4.132   6.167 -0.5916  0.4680 -0.3832
 4833SOL    HW219104   0.802   4.102   6.123 -1.0819 -1.0456 -0.2992
 4833SOL    HW319105   0.744   4.124   6.260 -1.0259 -0.5332 -0.3561
 4833SOL    MW419106   0.736   4.127   6.174 -0.2535 -0.0655 -0.2967
 4834SOL     OW19107   4.707   1.216   3.645  0.5880  0.4410 -0.5176
 4834SOL    HW219108   4.689   1.148   3.580 -0.2102 -1.5948  1.6773
 4834SOL    HW319109   4.621   1.240   3.679  1.0517  0.5695  0.6126
 4834SOL    MW419110   4.693   1.210   3.641  0.1560 -0.0762 -0.1404
 4835SOL     OW19111   0.311   2.810   4.869 -0.5573  0.8093  0.5728
 4835SOL    HW219112   0.352   2.816   4.955 -0.4790 -0.9828  0.7152
 4835SOL    HW319113   0.384   2.788   4.810 -0.9739 -0.5109  0.5106
 4835SOL    MW419114   0.326   2.808   4.872 -0.0425  0.0142 -0.3015
 4836SOL     OW19115   0.472   1.280   4.234  0.3501  0.2451 -0.3501
 4836SOL    HW219116   0.473   1.303   4.141 -0.9637 -2.0818 -1.0097
 4836SOL    HW319117   0.416   1.345   4.275  0.3984  0.8947 -1.2869
 4836SOL    MW419118   0.465   1.291   4.227 -0.2967  0.5044 -0.0988
 4837SOL     OW19119   0.085   5.035   1.598  0.0702  0.1459 -0.2632
 4837SOL    HW219120   0.172   4.996   1.610 -0.2824 -2.6851 -4.4804
 4837SOL    HW319121   0.103   5.125   1.571  1.5805  0.1230  0.5793
 4837SOL    MW419122   0.099   5.042   1.596 -0.3057 -0.0507  0.4051
 4838SOL     OW19123   0.881   4.234   5.268 -0.2250 -0.5410  0.0356
 4838SOL    HW219124   0.942   4.169   5.302  0.3942  0.4956  0.9257
 4838SOL    HW319125   0.797   4.188   5.265  0.2960 -1.5250  0.1988
 4838SOL    MW419126   0.878   4.219   5.272 -0.2355  0.0408 -0.3370
 4839SOL     OW19127   1.210   5.454   5.589 -0.6275  0.6067 -0.5212
 4839SOL    HW219128   1.204   5.482   5.497  0.4124 -0.9440 -1.1017
 4839SOL    HW319129   1.259   5.523   5.633  0.3885  0.5429 -1.5241
 4839SOL    MW419130   1.215   5.467   5.582 -0.0388  0.5219 -0.2469
 4840SOL     OW19131   4.569   2.094   1.528  0.7068 -0.0271 -0.3779
 4840SOL    HW219132   4.512   2.019   1.545 -1.9813  1.8497 -0.3518
 4840SOL    HW319133   4.589   2.130   1.615  0.8952  0.0210 -0.4409
 4840SOL    MW419134   4.564   2.089   1.542 -0.4149 -0.4204  0.7716
 4841SOL     OW19135   5.193   0.370   1.452 -0.6808  0.4411 -0.3369
 4841SOL    HW219136   5.125   0.401   1.393 -0.6026 -1.3832 -1.4741
 4841SOL    HW319137   5.170   0.279   1.470  2.1690 -0.7408 -1.9355
 4841SOL    MW419138   5.181   0.362   1.447  0.5043  0.2901 -0.3617
 4842SOL     OW19139   3.915   2.397   1.257 -0.2244  0.0582 -0.1091
 4842SOL    HW219140   3.984   2.332   1.252 -1.3249 -1.0920 -1.1897
 4842SOL    HW319141   3.911   2.421   1.350  1.8691  0.4823 -0.0899
 4842SOL    MW419142   3.923   2.392   1.269  0.1174 -0.4347 -0.4319
 4843SOL     OW19143   1.323   3.458   0.028 -0.0756 -0.2904  0.0019
 4843SOL    HW219144   1.295   3.467  -0.064 -2.4768  1.0229  0.7661
 4843SOL    HW319145   1.278   3.379   0.058  0.6461 -0.6736  0.1007
 4843SOL    MW419146   1.313   3.448   0.019 -0.2122 -0.7595 -0.4268
 4844SOL     OW19147   1.734   0.502   4.364 -0.1247  0.2016 -0.9609
 4844SOL    HW219148   1.733   0.532   4.455  0.1355  2.6987 -1.7030
 4844SOL    HW319149   1.826   0.482   4.346  0.0347  0.9318 -1.0061
 4844SOL    MW419150   1.746   0.503   4.374  0.0973 -0.0258 -0.0710
 4845SOL     OW19151   1.339   0.387   0.221 -0.0505 -0.2583 -0.0658
 4845SOL    HW219152   1.264   0.446   0.215 -1.1515 -1.3323  2.1499
 4845SOL    HW319153   1.308   0.304   0.184  1.0132  0.0497 -1.7774
 4845SOL    MW419154   1.325   0.384   0.215 -0.0235 -0.2691  0.5463
 4846SOL     OW19155   4.212   3.586   0.147 -0.4712 -0.4514  0.0254
 4846SOL    HW219156   4.119   3.564   0.140 -0.8258  0.6076  1.0497
 4846SOL    HW319157   4.231   3.583   0.240  0.4614 -0.3943 -0.1516
 4846SOL    MW419158   4.202   3.583   0.158  0.0278 -0.5584 -0.9054
 4847SOL     OW19159   4.532   4.773   2.748  0.2459  0.0817  0.2474
 4847SOL    HW219160   4.475   4.835   2.702 -0.2372 -0.2684  0.3592
 4847SOL    HW319161   4.529   4.801   2.839  2.8804  2.0825 -0.1521
 4847SOL    MW419162   4.524   4.785   2.754 -0.3740  0.0406 -0.0276
 4848SOL     OW19163   4.392   1.320   2.978  0.3034  0.5799  0.9287
 4848SOL    HW219164   4.397   1.401   3.029  2.4064  0.7741  0.5055
 4848SOL    HW319165   4.476   1.315   2.933  0.4003 -2.0804  1.2646
 4848SOL    MW419166   4.403   1.330   2.979 -0.4901  0.7098 -0.2545
 4849SOL     OW19167   5.103   0.400   6.396  0.3735  0.8266  0.2615
 4849SOL    HW219168   5.154   0.425   6.473 -0.8729  0.9997  1.0573
 4849SOL    HW319169   5.153   0.328   6.357 -0.0255 -0.7371  2.4518
 4849SOL    MW419170   5.117   0.394   6.401  0.3375 -0.4944  0.5651
 4850SOL     OW19171   1.656   1.970   1.967  0.0026  0.2086 -0.2183
 4850SOL    HW219172   1.742   1.965   1.926 -0.1125  0.6693 -0.5222
 4850SOL    HW319173   1.659   1.905   2.037  0.4243 -0.1273 -0.5457
 4850SOL    MW419174   1.668   1.961   1.971 -0.1233  0.0352 -0.8827
 4851SOL     OW19175   4.823   4.829   3.865 -0.4005  0.0238 -0.0595
 4851SOL    HW219176   4.915   4.845   3.884  0.2476 -1.7930 -1.3355
 4851SOL    HW319177   4.789   4.787   3.944  0.2596 -0.6175 -0.1091
 4851SOL    MW419178   4.831   4.825   3.878 -0.0348 -0.0923  0.1723
 4852SOL     OW19179   4.070   0.389   1.252 -0.3943  0.2947 -0.5972
 4852SOL    HW219180   4.037   0.404   1.341 -1.1450 -0.5359 -0.7224
 4852SOL    HW319181   4.126   0.465   1.234 -2.0797  1.6804 -0.2933
 4852SOL    MW419182   4.073   0.401   1.261  0.0747  0.5209 -0.0301
 4853SOL     OW19183   6.258   5.917   5.334  0.2680  0.1043  0.4177
 4853SOL    HW219184   6.271   5.903   5.240 -1.9368 -0.8624  0.1781
 4853SOL    HW319185   6.169   5.954   5.339  0.2859 -0.0404  2.1402
 4853SOL    MW419186   6.248   5.920   5.322 -0.0856  0.2734  0.1349
 4854SOL     OW19187   3.773   5.202   1.230 -0.4113  0.0749 -0.2366
 4854SOL    HW219188   3.842   5.138   1.242  1.5402  1.7648 -1.7858
 4854SOL    HW319189   3.750   5.229   1.319  1.1669 -0.3058  0.3187
 4854SOL    MW419190   3.779   5.197   1.243  0.4005 -0.7632  0.5226
 4855SOL     OW19191   0.505   3.235   0.013  0.4199 -0.4560 -0.1670
 4855SOL    HW219192   0.502   3.207   0.104 -0.3779 -0.5235 -0.2073
 4855SOL    HW319193   0.561   3.313   0.013  0.5175 -0.5282  0.3572
 4855SOL    MW419194   0.512   3.242   0.025  0.1130  0.5735 -0.4091
 4856SOL     OW19195   5.006   3.269   6.300 -0.3683 -0.5565  0.5833
 4856SOL    HW219196   5.080   3.225   6.342  0.1428 -0.5831 -0.3034
 4856SOL    HW319197   5.001   3.355   6.343 -0.5873 -1.0110  1.4704
 4856SOL    MW419198   5.015   3.275   6.311 -0.7958  0.4983  0.2162
 4857SOL     OW19199   5.034   2.337   4.207  0.2694 -0.2433 -0.1507
 4857SOL    HW219200   5.014   2.427   4.183  0.7370  0.4079  1.7120
 4857SOL    HW319201   4.950   2.297   4.228  0.1799  0.1731  0.2924
 4857SOL    MW419202   5.020   2.343   4.207  0.8905  0.0033 -0.1485
 4858SOL     OW19203   1.342   3.438   5.675  0.2176 -0.1704  0.5925
 4858SOL    HW219204   1.377   3.515   5.719  2.0215  1.4514 -3.2439
 4858SOL    HW319205   1.384   3.364   5.720  0.5456  1.1907  2.6442
 4858SOL    MW419206   1.352   3.438   5.687 -0.0279 -0.1135 -0.4118
 4859SOL     OW19207   5.423   5.447   5.167 -0.3814  0.0444  0.0667
 4859SOL    HW219208   5.334   5.480   5.166 -0.2005  0.5312 -1.3553
 4859SOL    HW319209   5.434   5.403   5.083  0.9499  0.6637 -0.1160
 4859SOL    MW419210   5.413   5.446   5.156  0.3081 -0.1861 -0.1934
 4860SOL     OW19211   5.674   5.912   3.594 -0.3415 -0.3853 -0.1903
 4860SOL    HW219212   5.700   5.940   3.507 -1.2063  1.7603  0.1807
 4860SOL    HW319213   5.732   5.960   3.653 -0.0827 -1.4471  0.4443
 4860SOL    MW419214   5.685   5.922   3.590  0.4529  0.7852  0.1995
 4861SOL     OW19215   4.187   3.702   0.775 -0.4779  0.5756 -0.1479
 4861SOL    HW219216   4.140   3.618   0.778 -0.0930  0.3165 -0.9922
 4861SOL    HW319217   4.234   3.706   0.858  2.2511 -1.7032 -1.4058
 4861SOL    MW419218   4.187   3.691   0.786 -0.2243 -0.4477 -0.6481
 4862SOL     OW19219   0.518   2.713   1.478  0.6785  0.1649  0.3771
 4862SOL    HW219220   0.445   2.654   1.496 -0.1107  1.1319  0.4221
 4862SOL    HW319221   0.509   2.735   1.385 -0.8282  2.5141  0.9937
 4862SOL    MW419222   0.507   2.708   1.468  0.5766  0.0182 -0.3909
 4863SOL     OW19223   2.801   6.292   4.061 -0.2956 -0.3720  0.1038
 4863SOL    HW219224   2.740   6.346   4.111 -0.4522 -1.3375  0.9747
 4863SOL    HW319225   2.744   6.236   4.007 -0.1546 -0.3770 -0.0387
 4863SOL    MW419226   2.785   6.292   4.060 -0.2390 -0.5605  0.2993
 4864SOL     OW19227   0.157   5.296   5.007 -0.7507 -0.7731 -0.6421
 4864SOL    HW219228   0.076   5.346   4.999 -0.2055  0.0910 -0.8778
 4864SOL    HW319229   0.204   5.336   5.080  1.1739  1.2491 -2.8135
 4864SOL    MW419230   0.153   5.308   5.015  0.0312 -0.4976 -0.3059
 4865SOL     OW19231   5.430   4.969   0.011 -0.3502 -0.3845  0.1526
 4865SOL    HW219232   5.492   5.036  -0.017  1.7099 -1.7570  1.2502
 4865SOL    HW319233   5.451   4.952   0.102 -2.7392 -0.5388  0.7505
 4865SOL    MW419234   5.441   4.976   0.019 -0.4273  0.4658 -0.1277
 4866SOL     OW19235   2.495   6.204   6.201  0.4765  0.1024  0.0093
 4866SOL    HW219236   2.539   6.175   6.281  2.3839  0.0587 -1.0126
 4866SOL    HW319237   2.564   6.209   6.135 -0.9304  0.7630 -1.4964
 4866SOL    MW419238   2.510   6.201   6.203 -0.3583  0.5041 -0.2530
 4867SOL     OW19239   1.981   4.208   0.518 -0.1763 -0.3346 -0.7091
 4867SOL    HW219240   2.030   4.137   0.477 -2.4822 -1.8667 -1.0153
 4867SOL    HW319241   2.026   4.223   0.601  0.6410 -1.8575 -0.8381
 4867SOL    MW419242   1.993   4.201   0.524 -0.4359 -0.2264  0.7123
 4868SOL     OW19243   5.467   5.930   3.039 -0.3461 -0.3988 -0.1962
 4868SOL    HW219244   5.465   5.876   3.118  2.1232 -0.6018 -0.2122
 4868SOL    HW319245   5.408   5.886   2.978  1.5087 -3.1107 -0.1821
 4868SOL    MW419246   5.459   5.917   3.041 -0.1502 -0.3910  0.8452
 4869SOL     OW19247   5.466   1.791   4.430 -0.3399 -0.6002 -0.0167
 4869SOL    HW219248   5.444   1.721   4.368  0.3599 -0.0708 -0.8917
 4869SOL    HW319249   5.384   1.810   4.475 -1.3123  0.1605 -1.9937
 4869SOL    MW419250   5.453   1.785   4.428  0.0004  0.1251 -0.0815
 4870SOL     OW19251   5.228   1.016   5.172 -0.0198 -0.0621 -0.1074
 4870SOL    HW219252   5.133   1.026   5.174 -0.4233 -2.9739  2.1664
 4870SOL    HW319253   5.243   0.943   5.112  0.5697 -0.7728  0.8689
 4870SOL    MW419254   5.218   1.008   5.164  0.0369  0.0146  0.1233
 4871SOL     OW19255   2.177   5.988   4.361 -0.0624  0.2890  0.2266
 4871SOL    HW219256   2.143   5.965   4.274 -1.9566  0.8904  0.7710
 4871SOL    HW319257   2.265   5.951   4.362 -0.0370  0.1478 -1.8989
 4871SOL    MW419258   2.184   5.980   4.349 -0.1508  0.3469 -0.0916
 4872SOL     OW19259   0.440   5.340   6.268 -0.1558  1.2344  0.2056
 4872SOL    HW219260   0.511   5.379   6.319 -0.8214  1.3912  1.0471
 4872SOL    HW319261   0.367   5.333   6.330 -0.5969  0.2460 -0.3974
 4872SOL    MW419262   0.439   5.345   6.283  0.1008 -0.2979 -0.0600
 4873SOL     OW19263   4.481   5.746   1.760  0.1155  0.1972 -0.8005
 4873SOL    HW219264   4.523   5.748   1.846  2.6707 -1.9684 -1.8702
 4873SOL    HW319265   4.390   5.724   1.778  0.8402 -1.3464  1.3344
 4873SOL    MW419266   4.474   5.743   1.774 -0.1468 -0.0579 -0.1203
 4874SOL     OW19267   4.937   5.567   3.113 -0.3799  0.4568 -0.2135
 4874SOL    HW219268   5.018   5.516   3.119 -0.4531  0.4047  0.3408
 4874SOL    HW319269   4.926   5.605   3.200 -2.0583 -1.2398  0.3730
 4874SOL    MW419270   4.946   5.565   3.125 -0.3813 -0.4478 -0.0700
 4875SOL     OW19271   5.955   2.261   3.500 -0.0399  0.3517 -0.1497
 4875SOL    HW219272   5.866   2.257   3.534  0.0796 -3.3903  0.1103
 4875SOL    HW319273   5.968   2.177   3.456  3.7955  0.1274  1.0310
 4875SOL    MW419274   5.945   2.249   3.499 -0.3923  0.0585  0.2123
 4876SOL     OW19275   4.176   0.802   2.497  0.6251 -0.3265 -0.4815
 4876SOL    HW219276   4.199   0.829   2.586 -1.4523  1.3535 -0.3554
 4876SOL    HW319277   4.106   0.738   2.508 -0.4614  0.7402 -0.8475
 4876SOL    MW419278   4.170   0.797   2.510  0.0366  0.0134  0.0025
 4877SOL     OW19279   0.852   3.603   0.565 -0.0964 -0.0879  0.1558
 4877SOL    HW219280   0.766   3.591   0.524  0.8328 -0.1804 -1.9321
 4877SOL    HW319281   0.878   3.692   0.540 -0.4605  0.7998  2.6477
 4877SOL    MW419282   0.844   3.613   0.556 -0.3963  0.0916 -0.1338
 4878SOL     OW19283   2.384   0.124   1.086 -0.0188  0.3547  0.1511
 4878SOL    HW219284   2.406   0.215   1.066  0.9871  0.0454 -0.2118
 4878SOL    HW319285   2.406   0.114   1.178 -2.8823  1.2525  1.0649
 4878SOL    MW419286   2.390   0.135   1.095  0.1772 -0.3195  0.5506
 4879SOL     OW19287   0.048   2.399   5.819  0.4752 -0.2088  0.2524
 4879SOL    HW219288  -0.020   2.352   5.771  0.7929 -0.4037 -0.0118
 4879SOL    HW319289   0.111   2.332   5.844 -0.4641 -0.3854  2.3583
 4879SOL    MW419290   0.048   2.384   5.816  0.2723 -0.3489 -0.6183
 4880SOL     OW19291   2.075   3.472   2.742 -0.0854 -0.0157  0.4000
 4880SOL    HW219292   2.049   3.536   2.676 -0.4944  1.5229  1.9711
 4880SOL    HW319293   1.992   3.434   2.772 -0.1132  0.9539  1.6039
 4880SOL    MW419294   2.061   3.475   2.737  0.0654 -0.2017  0.1616
 4881SOL     OW19295   0.915   1.009   4.478 -0.1721 -0.7013  0.1008
 4881SOL    HW219296   0.837   1.023   4.531  0.0950  1.8209 -0.0496
 4881SOL    HW319297   0.883   0.990   4.390 -0.6192 -0.5077  0.2231
 4881SOL    MW419298   0.901   1.008   4.474  0.2547 -0.1340 -0.1961
 4882SOL     OW19299   3.453   4.845   1.999 -0.3393 -0.0287  0.8249
 4882SOL    HW219300   3.370   4.862   2.044 -1.8365  0.6537 -1.9149
 4882SOL    HW319301   3.436   4.872   1.909  3.2977  1.2893  0.3912
 4882SOL    MW419302   3.440   4.851   1.993 -0.0226 -0.6281 -0.1760
 4883SOL     OW19303   0.397   5.503   0.342  0.1409 -0.1647  0.0510
 4883SOL    HW219304   0.390   5.538   0.431  2.8882  1.9858 -0.4340
 4883SOL    HW319305   0.452   5.425   0.352  0.0543 -0.1978  0.2850
 4883SOL    MW419306   0.403   5.497   0.355 -0.3909  0.3514  0.2313
 4884SOL     OW19307   5.319   1.567   3.111  0.0122 -0.0916 -0.5534
 4884SOL    HW219308   5.247   1.526   3.158 -1.4302  0.5606 -2.0697
 4884SOL    HW319309   5.395   1.552   3.166 -1.3089 -0.6131  1.2417
 4884SOL    MW419310   5.319   1.560   3.124  0.4880  0.6597  0.5102
 4885SOL     OW19311   6.396   4.585   3.173 -0.1955  0.1059  0.2582
 4885SOL    HW219312   6.443   4.586   3.257  1.0981 -0.7220 -0.4190
 4885SOL    HW319313   6.392   4.676   3.147  0.1523  0.2927  0.8260
 4885SOL    MW419314   6.402   4.597   3.181 -0.1412  0.5993 -0.2438
 4886SOL     OW19315   6.167   5.850   0.542  0.0781  0.4263 -0.4366
 4886SOL    HW219316   6.091   5.802   0.510  0.0833  0.0882  0.0414
 4886SOL    HW319317   6.147   5.868   0.634  0.6822  0.0959 -0.2313
 4886SOL    MW419318   6.154   5.846   0.550 -0.4332 -0.1976  0.0331
 4887SOL     OW19319   3.188   1.095   0.189 -0.3381  0.4259 -0.3647
 4887SOL    HW219320   3.133   1.028   0.149  1.0248 -0.8010 -0.3080
 4887SOL    HW319321   3.210   1.155   0.118  0.8688 -0.9123 -1.1833
 4887SOL    MW419322   3.184   1.094   0.174  0.3093 -0.9494 -0.0417
 4888SOL     OW19323   3.338   3.632   4.583 -0.2203 -0.4033  0.0270
 4888SOL    HW219324   3.266   3.578   4.549 -1.5398  0.5038  1.2314
 4888SOL    HW319325   3.385   3.575   4.644 -0.8422 -0.5968  0.3381
 4888SOL    MW419326   3.334   3.618   4.587 -0.3037 -0.2406 -0.1474
 4889SOL     OW19327   0.372   1.934   4.997 -1.0477 -0.0659  0.1470
 4889SOL    HW219328   0.365   1.961   4.905 -0.3759  1.4944  0.5177
 4889SOL    HW319329   0.443   1.869   4.997  0.6486  1.6809 -0.1530
 4889SOL    MW419330   0.381   1.929   4.985  0.0793 -0.1127  0.6154
 4890SOL     OW19331   3.007   5.448   6.136 -0.1163  0.3970  0.0362
 4890SOL    HW219332   2.953   5.524   6.155 -0.6340  0.0682 -0.1028
 4890SOL    HW319333   2.983   5.423   6.047  0.1557  0.1559  0.0290
 4890SOL    MW419334   2.997   5.455   6.127 -0.4131 -0.0609 -0.5129
 4891SOL     OW19335   0.681   5.243   4.117 -0.6810  0.1721 -0.0143
 4891SOL    HW219336   0.674   5.197   4.033  0.3412 -1.8057  0.9174
 4891SOL    HW319337   0.739   5.188   4.170 -2.4853  0.5574  2.5472
 4891SOL    MW419338   0.688   5.230   4.113  0.5401 -0.4916 -0.3319
 4892SOL     OW19339   5.331   0.060   1.129 -0.3003 -0.2469 -0.3503
 4892SOL    HW219340   5.417   0.028   1.101 -0.3398 -0.0870 -0.6618
 4892SOL    HW319341   5.346   0.150   1.156  0.0639 -0.9083  1.7964
 4892SOL    MW419342   5.344   0.068   1.129  0.0594 -0.4344 -0.4867
 4893SOL     OW19343   5.503   5.869   0.346 -0.1193  0.0300 -0.1643
 4893SOL    HW219344   5.433   5.858   0.410  1.5505 -0.7000  1.6180
 4893SOL    HW319345   5.503   5.963   0.327 -0.9629  0.1819  0.5052
 4893SOL    MW419346   5.494   5.880   0.352 -0.3752  0.2609  0.1854
 4894SOL     OW19347   5.751   5.718   0.042  0.1876  0.4240  0.5389
 4894SOL    HW219348   5.702   5.798   0.023  0.5622  0.3306 -0.9313
 4894SOL    HW319349   5.695   5.670   0.102 -1.5692  0.3263 -1.0756
 4894SOL    MW419350   5.737   5.722   0.047  0.3413  0.6423 -0.2862
 4895SOL     OW19351   1.490   0.105   0.558 -0.0413  0.0740 -0.5226
 4895SOL    HW219352   1.456   0.093   0.469  1.0202  0.0714 -0.9453
 4895SOL    HW319353   1.415   0.090   0.614 -1.2023  1.9626 -1.4745
 4895SOL    MW419354   1.476   0.101   0.553  0.0788  0.0663 -0.0198
 4896SOL     OW19355   2.561   0.681   4.439  0.3129 -0.0610 -0.1390
 4896SOL    HW219356   2.581   0.623   4.512  3.4330  0.7583 -0.2238
 4896SOL    HW319357   2.471   0.710   4.456 -0.1535 -2.2640  1.6621
 4896SOL    MW419358   2.552   0.677   4.451 -0.3957  0.2449  0.0385
 4897SOL     OW19359   4.387   5.758   6.199 -0.0789 -0.3711 -0.6648
 4897SOL    HW219360   4.296   5.730   6.212  0.6026 -1.8240  1.4118
 4897SOL    HW319361   4.431   5.681   6.164  0.5441  0.0767 -0.8759
 4897SOL    MW419362   4.381   5.744   6.196  0.2448  0.6393 -0.0784
 4898SOL     OW19363   4.580   6.126   0.263 -0.8834  0.0937 -0.1544
 4898SOL    HW219364   4.498   6.174   0.262 -0.0704  1.5659 -1.4321
 4898SOL    HW319365   4.648   6.194   0.257  0.4411 -1.0662  0.9106
 4898SOL    MW419366   4.578   6.141   0.262  0.0228 -0.0596 -0.3219
 4899SOL     OW19367   3.660   3.083   5.854  0.5292 -0.5080 -0.0898
 4899SOL    HW219368   3.705   3.025   5.915  3.7073  0.5080 -1.2780
 4899SOL    HW319369   3.647   3.029   5.776 -2.0964 -1.3239  0.8034
 4899SOL    MW419370   3.664   3.068   5.852 -0.3213 -0.6052  0.1792
 4900SOL     OW19371   1.431   4.372   3.285 -0.3510  0.2252  0.0741
 4900SOL    HW219372   1.471   4.430   3.220  3.3005  0.0826  1.9201
 4900SOL    HW319373   1.377   4.430   3.339 -0.4794  1.0064 -0.8626
 4900SOL    MW419374   1.429   4.388   3.284 -0.6950 -0.2288 -0.7636
 4901SOL     OW19375   3.719   3.057   5.318 -0.6906  0.0078 -0.2313
 4901SOL    HW219376   3.755   2.969   5.311 -0.4151  0.1627 -0.8156
 4901SOL    HW319377   3.777   3.112   5.266 -0.2238  0.7433  1.0192
 4901SOL    MW419378   3.731   3.053   5.310 -0.5059  0.0628  0.3524
 4902SOL     OW19379   3.098   2.292   2.209 -0.1797 -0.2676 -0.2109
 4902SOL    HW219380   3.052   2.343   2.142 -0.2549  1.6174  1.1724
 4902SOL    HW319381   3.183   2.336   2.219  0.0430 -0.8406  0.5252
 4902SOL    MW419382   3.103   2.305   2.202  0.0329  0.3129 -0.2090
 4903SOL     OW19383   2.899   6.354   0.564 -0.2328  0.3473  0.0408
 4903SOL    HW219384   2.991   6.359   0.537  0.0965  0.0819  1.0686
 4903SOL    HW319385   2.857   6.301   0.495  1.0838 -2.3825  1.1773
 4903SOL    MW419386   2.906   6.348   0.551  0.4586 -0.3792 -0.5478
 4904SOL     OW19387   0.199   2.230   4.157 -0.2191  0.1226 -0.0777
 4904SOL    HW219388   0.151   2.216   4.076  0.0224 -0.7436 -0.0823
 4904SOL    HW319389   0.180   2.153   4.211 -2.6267  1.8959  1.8706
 4904SOL    MW419390   0.190   2.218   4.154 -0.2563  0.8645  0.2732
 4905SOL     OW19391   0.017   4.267   0.190 -0.3588  0.3191  0.1338
 4905SOL    HW219392  -0.030   4.338   0.146 -0.7865 -0.2275 -0.3094
 4905SOL    HW319393   0.106   4.272   0.156  0.3761  2.3069  2.0703
 4905SOL    MW419394   0.022   4.277   0.180  0.5039 -0.0187  0.0080
 4906SOL     OW19395   2.536   3.189   0.517 -0.2257  0.0790  0.3830
 4906SOL    HW219396   2.481   3.259   0.553  0.3225  0.4559  0.5069
 4906SOL    HW319397   2.608   3.235   0.475  0.5833 -0.4267  1.1895
 4906SOL    MW419398   2.538   3.204   0.516 -0.2818 -0.1163  0.0557
 4907SOL     OW19399   2.525   2.211   1.865 -0.3389  0.5735  0.7133
 4907SOL    HW219400   2.521   2.241   1.774  1.6917 -0.8128  0.0823
 4907SOL    HW319401   2.447   2.157   1.876  0.2110 -0.6343 -0.8190
 4907SOL    MW419402   2.514   2.208   1.854 -0.1383 -0.1063  0.1821
 4908SOL     OW19403   5.719   6.018   6.044 -0.1182  0.1351 -0.2011
 4908SOL    HW219404   5.784   5.959   6.006  0.0651 -0.0910  0.4569
 4908SOL    HW319405   5.749   6.106   6.021 -0.6118 -0.0230 -1.5456
 4908SOL    MW419406   5.731   6.022   6.036 -0.1287  0.6023 -0.2418
 4909SOL     OW19407   3.132   0.199   4.964 -0.6842 -0.2489 -0.0921
 4909SOL    HW219408   3.111   0.200   4.871  0.2037 -0.0177 -0.2953
 4909SOL    HW319409   3.223   0.226   4.969  0.2253 -3.0792  0.5780
 4909SOL    MW419410   3.141   0.202   4.952 -0.1714  0.0410 -0.6348
 4910SOL     OW19411   4.676   0.892   2.377 -0.4064  0.0179 -0.2962
 4910SOL    HW219412   4.750   0.947   2.353 -0.9130  0.7491 -0.2285
 4910SOL    HW319413   4.715   0.811   2.410  0.3457  0.2524 -0.5925
 4910SOL    MW419414   4.691   0.888   2.378  0.2024 -0.3069 -0.1186
 4911SOL     OW19415   5.355   5.697   2.078  0.6599  0.6976 -0.0568
 4911SOL    HW219416   5.350   5.756   2.002 -1.2756  0.8855  0.1860
 4911SOL    HW319417   5.334   5.611   2.043 -1.1674  0.9256  0.3689
 4911SOL    MW419418   5.352   5.694   2.063 -0.0175 -0.3027 -0.0383
 4912SOL     OW19419   5.361   2.896   0.115 -0.1467  0.3649 -0.0377
 4912SOL    HW219420   5.455   2.882   0.125 -0.2079  0.4882  0.7657
 4912SOL    HW319421   5.353   2.986   0.085 -0.0016  0.2797 -0.3378
 4912SOL    MW419422   5.372   2.906   0.112  0.2769  0.0688  0.1921
 4913SOL     OW19423   6.255   2.411   4.041 -0.5757  0.0951 -0.6317
 4913SOL    HW219424   6.322   2.474   4.065 -1.1237 -0.1165  1.7146
 4913SOL    HW319425   6.198   2.458   3.980 -0.5564  1.6476  0.4912
 4913SOL    MW419426   6.256   2.425   4.036  0.8375  0.2632  0.1470
 4914SOL     OW19427   1.115   1.041   2.460  0.0484 -0.2586 -0.4846
 4914SOL    HW219428   1.175   1.103   2.418 -1.2427  0.3951 -1.4370
 4914SOL    HW319429   1.065   1.095   2.522  2.0193 -1.2248  2.1471
 4914SOL    MW419430   1.116   1.056   2.463 -0.5876  0.4837  0.0561
 4915SOL     OW19431   1.411   0.240   5.689 -0.2730  0.3817 -0.0323
 4915SOL    HW219432   1.358   0.223   5.767  1.7109  0.1244  1.3443
 4915SOL    HW319433   1.403   0.334   5.675  0.0360  0.5972  1.0741
 4915SOL    MW419434   1.403   0.250   5.697 -0.0360  0.0867  0.2208
 4916SOL     OW19435   0.900   5.969   4.477 -0.7115  0.3886 -0.0716
 4916SOL    HW219436   0.853   5.888   4.459 -2.8208  0.6347  3.3646
 4916SOL    HW319437   0.884   6.023   4.400 -0.9983 -1.7057 -1.5546
 4916SOL    MW419438   0.891   5.966   4.465  0.2992  0.1891 -0.3037
 4917SOL     OW19439   4.316   0.340   0.495 -0.1721 -0.3011 -0.2857
 4917SOL    HW219440   4.384   0.406   0.511 -1.8232  1.2212  0.7378
 4917SOL    HW319441   4.333   0.273   0.561  0.2432  0.1452  0.0767
 4917SOL    MW419442   4.327   0.340   0.506 -0.8123 -0.0210  0.0811
 4918SOL     OW19443   0.112   5.828   1.734  0.1626  0.3835  0.4367
 4918SOL    HW219444   0.075   5.882   1.804  0.3034 -1.0807  1.7007
 4918SOL    HW319445   0.166   5.764   1.779  3.3733  1.6700 -1.2772
 4918SOL    MW419446   0.114   5.827   1.749  0.0360  0.1704 -0.0415
 4919SOL     OW19447   1.563   1.529   0.450  0.1670  0.4386  0.3317
 4919SOL    HW219448   1.505   1.455   0.470  2.7954 -1.4220  1.8703
 4919SOL    HW319449   1.556   1.541   0.356 -0.7115 -1.4858  0.1058
 4919SOL    MW419450   1.555   1.521   0.440 -0.2595 -0.1923 -0.6208
 4920SOL     OW19451   6.040   2.930   3.193  0.7735  0.1196 -0.4462
 4920SOL    HW219452   6.090   2.849   3.190 -1.6479 -1.4451 -3.0253
 4920SOL    HW319453   5.981   2.919   3.267 -0.3061 -1.0685 -1.4274
 4920SOL    MW419454   6.039   2.918   3.202 -0.0086 -0.0925  0.4144
 4921SOL     OW19455   3.548   1.788   3.307  0.0682 -0.4955  0.3532
 4921SOL    HW219456   3.610   1.762   3.239 -0.5799  0.5923 -0.6871
 4921SOL    HW319457   3.597   1.849   3.363  1.0499 -2.4767  1.7767
 4921SOL    MW419458   3.562   1.793   3.306 -0.1409 -0.3616  0.2853
 4922SOL     OW19459   1.446   2.951   1.388  0.0991  0.2361  0.6436
 4922SOL    HW219460   1.498   2.994   1.320  0.6876 -0.8539  0.3798
 4922SOL    HW319461   1.371   2.914   1.341  0.0484  0.2288  0.7302
 4922SOL    MW419462   1.443   2.952   1.373 -0.0197 -0.2363  0.2637
 4923SOL     OW19463   1.782   2.690   6.242  0.0212  0.3242  0.2253
 4923SOL    HW219464   1.820   2.603   6.245 -0.8181 -0.0388  0.6339
 4923SOL    HW319465   1.754   2.701   6.151  1.8628  0.9491 -0.3036
 4923SOL    MW419466   1.783   2.680   6.230  0.1716 -0.2580  0.2877
 4924SOL     OW19467   2.112   0.866   6.352  0.1203 -0.1038 -0.5934
 4924SOL    HW219468   2.035   0.810   6.345 -0.4072  0.5966 -0.5087
 4924SOL    HW319469   2.145   0.874   6.263  0.3691 -0.7740 -0.5668
 4924SOL    MW419470   2.107   0.860   6.340 -0.2646  0.0165  0.2618
 4925SOL     OW19471   0.127   4.677   1.172 -0.0206 -0.3627 -0.4337
 4925SOL    HW219472   0.033   4.670   1.154  0.0127 -2.2849 -0.1224
 4925SOL    HW319473   0.132   4.717   1.258 -0.6251 -1.3828  0.0911
 4925SOL    MW419474   0.115   4.681   1.181  0.2528 -0.1269 -0.4178
 4926SOL     OW19475   6.116   3.975   2.421  0.1088  0.6166 -0.0677
 4926SOL    HW219476   6.112   3.954   2.514 -1.5886 -0.5937 -0.3687
 4926SOL    HW319477   6.113   4.071   2.418  1.1698  0.7029  1.1386
 4926SOL    MW419478   6.115   3.985   2.433  0.7604  0.4101 -0.8347
 4927SOL     OW19479   4.556   5.266   1.122  0.4868 -0.1711  0.1503
 4927SOL    HW219480   4.639   5.290   1.164  0.1472 -0.7267  1.1866
 4927SOL    HW319481   4.500   5.343   1.135  0.9607  0.3877 -0.9582
 4927SOL    MW419482   4.560   5.279   1.130 -0.0705 -0.4002  0.4809
 4928SOL     OW19483   0.807   4.893   3.963 -0.0573  0.4032  0.4716
 4928SOL    HW219484   0.737   4.947   3.923  0.1652 -0.4782 -1.2055
 4928SOL    HW319485   0.852   4.953   4.022 -1.2855  1.4052  0.4486
 4928SOL    MW419486   0.804   4.908   3.965  0.0060 -0.6310 -0.2313
 4929SOL     OW19487   0.189   0.378   2.545  0.6493 -0.0859  0.0483
 4929SOL    HW219488   0.164   0.470   2.552  0.7740 -0.0821  0.4385
 4929SOL    HW319489   0.260   0.367   2.609 -0.0790 -0.7013  0.7711
 4929SOL    MW419490   0.195   0.388   2.554  0.2028 -0.0500  0.3653
 4930SOL     OW19491   0.409   3.034   5.611  0.3341  0.1574 -0.4993
 4930SOL    HW219492   0.492   3.016   5.567 -0.3338 -1.4316 -1.2028
 4930SOL    HW319493   0.395   2.958   5.668 -1.2257 -0.2388 -1.3466
 4930SOL    MW419494   0.418   3.021   5.613 -0.2373 -0.3984  0.0807
 4931SOL     OW19495   0.747   3.838   6.413  0.5858 -0.3283 -0.0517
 4931SOL    HW219496   0.732   3.932   6.429 -2.1040 -0.8425  1.1277
 4931SOL    HW319497   0.808   3.836   6.340 -1.0024  2.3964 -1.6526
 4931SOL    MW419498   0.753   3.850   6.406 -0.0125 -0.0088  0.0316
 4932SOL     OW19499   2.542   1.056   2.632  0.4124  0.1462 -0.4361
 4932SOL    HW219500   2.491   1.135   2.612  0.0641 -0.1312 -0.6657
 4932SOL    HW319501   2.603   1.047   2.558  0.5642  0.2928 -0.3279
 4932SOL    MW419502   2.543   1.065   2.619  0.1787 -0.1931 -0.0290
 4933SOL     OW19503   4.960   4.525   6.303  0.5068  0.0332  0.0069
 4933SOL    HW219504   4.984   4.616   6.287 -1.6337  0.8401  0.9170
 4933SOL    HW319505   4.864   4.527   6.311  0.3344 -2.4103 -0.5546
 4933SOL    MW419506   4.950   4.537   6.302 -0.4367 -0.1305 -0.3626
 4934SOL     OW19507   5.728   0.038   1.925 -0.1206 -0.4068 -0.0709
 4934SOL    HW219508   5.811   0.077   1.952 -0.4045 -0.4270  0.8743
 4934SOL    HW319509   5.747  -0.003   1.841  1.1215 -1.3641  0.6400
 4934SOL    MW419510   5.741   0.038   1.918  0.6192  0.3612 -0.0773
 4935SOL     OW19511   3.448   5.152   1.383  0.7450 -0.0648 -0.2334
 4935SOL    HW219512   3.374   5.155   1.443  1.5748  2.2287  0.7888
 4935SOL    HW319513   3.410   5.168   1.297 -0.0444  0.4845  0.2050
 4935SOL    MW419514   3.434   5.155   1.380  0.2104 -0.0675  0.3348
 4936SOL     OW19515   4.170   0.262   2.177 -0.3497  0.3998  0.3737
 4936SOL    HW219516   4.241   0.210   2.215  0.0313 -0.6736 -1.6717
 4936SOL    HW319517   4.188   0.262   2.083 -3.3267 -0.3260 -0.2897
 4936SOL    MW419518   4.182   0.255   2.170  0.2658 -0.0769 -0.4283
 4937SOL     OW19519   2.395   2.753   1.756 -0.2883 -0.2559 -0.1143
 4937SOL    HW219520   2.431   2.820   1.698 -1.1941  0.3337 -0.0177
 4937SOL    HW319521   2.472   2.712   1.797  0.4460 -1.3606 -2.4232
 4937SOL    MW419522   2.410   2.756   1.754 -0.3206  0.1232 -0.4531
 4938SOL     OW19523   2.404   1.032   0.794 -0.0146  0.3496 -0.1945
 4938SOL    HW219524   2.346   0.988   0.731 -1.8317  0.5233  1.2742
 4938SOL    HW319525   2.347   1.054   0.867  1.7330  1.4855  0.8864
 4938SOL    MW419526   2.389   1.029   0.795 -0.8480  0.1382  0.3957
 4939SOL     OW19527   1.904   3.828   4.705 -0.4829 -0.1287  0.4396
 4939SOL    HW219528   1.979   3.780   4.669  1.5982  1.4984  2.3104
 4939SOL    HW319529   1.832   3.809   4.644  1.3684 -1.9081 -1.3680
 4939SOL    MW419530   1.904   3.819   4.692  0.3819  1.0146 -0.0791
 4940SOL     OW19531   5.617   5.804   2.485 -0.3950 -0.0315  0.2287
 4940SOL    HW219532   5.619   5.743   2.559  0.5995 -1.1113 -0.6395
 4940SOL    HW319533   5.699   5.787   2.438 -0.6106  1.2284 -0.6423
 4940SOL    MW419534   5.628   5.793   2.488 -0.1542 -0.0217 -0.4706
 4941SOL     OW19535   4.703   5.794   5.944 -0.0083  0.3233  0.1679
 4941SOL    HW219536   4.751   5.756   6.018  1.3540  1.2086 -0.2207
 4941SOL    HW319537   4.639   5.852   5.985  0.2585  0.2637  0.6814
 4941SOL    MW419538   4.701   5.797   5.960  0.3255  0.3571  0.0077
 4942SOL     OW19539   5.067   6.318   3.373 -0.3190 -0.0408  0.6104
 4942SOL    HW219540   5.060   6.318   3.469 -0.0755  2.0648  0.6679
 4942SOL    HW319541   5.148   6.366   3.355  0.1946 -1.3360 -0.6508
 4942SOL    MW419542   5.077   6.324   3.384  0.1739  0.2978  0.4902
 4943SOL     OW19543   6.328   1.790   0.635 -0.1810  0.3839 -0.2684
 4943SOL    HW219544   6.327   1.768   0.728  0.5717  2.2622  0.2096
 4943SOL    HW319545   6.365   1.878   0.630  2.8252 -0.8122 -2.5908
 4943SOL    MW419546   6.333   1.798   0.646 -0.7091  0.5027 -0.0055
 4944SOL     OW19547   5.701   3.706   3.859  0.3388 -0.1661 -0.1224
 4944SOL    HW219548   5.770   3.712   3.925  0.9962 -0.3542 -0.7719
 4944SOL    HW319549   5.639   3.776   3.882  0.0926 -0.7819  1.1909
 4944SOL    MW419550   5.702   3.716   3.871 -0.4905 -0.1444  0.0423
 4945SOL     OW19551   3.299   1.029   4.566  0.5896  0.6522 -0.0445
 4945SOL    HW219552   3.232   0.962   4.555  2.0250 -0.8720  0.0174
 4945SOL    HW319553   3.328   1.049   4.477  1.2914 -0.0545  0.0105
 4945SOL    MW419554   3.294   1.023   4.553 -0.3104  0.0559 -0.5617
 4946SOL     OW19555   3.433   2.057   5.525 -0.0587 -0.0430 -0.4642
 4946SOL    HW219556   3.387   2.137   5.553 -0.2277 -0.3581  0.1788
 4946SOL    HW319557   3.446   2.007   5.606 -3.1616 -2.3665 -1.1937
 4946SOL    MW419558   3.428   2.061   5.539  0.1172  0.4479 -0.6304
 4947SOL     OW19559   2.299   5.444   3.398  0.0681 -0.3835 -0.2124
 4947SOL    HW219560   2.391   5.420   3.388  0.1266 -0.6860  0.8928
 4947SOL    HW319561   2.275   5.413   3.485 -0.2217  2.3453  0.8012
 4947SOL    MW419562   2.308   5.437   3.408  0.4830  0.7920  0.7850
 4948SOL     OW19563   3.699   6.166   3.064 -0.2992 -0.4141 -0.3733
 4948SOL    HW219564   3.746   6.242   3.029 -0.8069  0.2706  0.4035
 4948SOL    HW319565   3.632   6.148   2.998  0.2087 -0.5807 -0.8559
 4948SOL    MW419566   3.697   6.174   3.051  0.1603 -0.0787  0.2522
 4949SOL     OW19567   0.802   0.019   2.482  0.2785  0.3946 -0.3633
 4949SOL    HW219568   0.880   0.060   2.517 -0.1216  0.4975  0.4228
 4949SOL    HW319569   0.831  -0.024   2.401  1.7320 -1.7315  1.1850
 4949SOL    MW419570   0.816   0.019   2.476  0.0788 -0.4132  0.3717
 4950SOL     OW19571   5.793   3.637   6.407 -0.2676  0.1693 -0.1409
 4950SOL    HW219572   5.753   3.594   6.482 -0.3787  1.8629  0.8404
 4950SOL    HW319573   5.882   3.658   6.436  0.0622 -0.1500 -0.8978
 4950SOL    MW419574   5.799   3.634   6.421  0.0256 -0.0940  0.1014
 4951SOL     OW19575   3.457   3.721   2.871  0.0388 -0.3717 -0.1175
 4951SOL    HW219576   3.502   3.791   2.918  1.2720  1.0705 -3.1335
 4951SOL    HW319577   3.473   3.643   2.922 -0.0444  1.2602  2.5824
 4951SOL    MW419578   3.465   3.720   2.884 -0.2418  0.1629 -0.1395
 4952SOL     OW19579   1.762   2.669   4.815  0.3341  0.1817 -0.1985
 4952SOL    HW219580   1.821   2.731   4.858  0.0288  0.5011 -0.2393
 4952SOL    HW319581   1.710   2.631   4.886  1.8018 -1.4343  0.0738
 4952SOL    MW419582   1.763   2.672   4.830 -0.1532 -0.0913 -0.2151
 4953SOL     OW19583   5.317   5.841   0.557 -0.0062  0.1729  0.4518
 4953SOL    HW219584   5.249   5.789   0.601  0.4940 -1.0962 -0.2145
 4953SOL    HW319585   5.372   5.874   0.627 -0.1975 -0.4077  0.8795
 4953SOL    MW419586   5.315   5.838   0.572 -0.0480  0.1831 -0.6636
 4954SOL     OW19587   3.930   0.496   0.538 -0.6845 -0.6446  0.4177
 4954SOL    HW219588   3.886   0.574   0.573 -0.1264 -0.1265 -0.0150
 4954SOL    HW319589   4.006   0.484   0.595  0.3049  0.2857 -0.6732
 4954SOL    MW419590   3.934   0.505   0.550  0.2925 -0.0832  0.1832
 4955SOL     OW19591   3.039   3.219   5.467 -0.4465 -0.0739 -0.1340
 4955SOL    HW219592   3.130   3.191   5.474 -0.2802  0.5291  0.0941
 4955SOL    HW319593   3.026   3.279   5.540 -0.8716  0.2653 -0.4862
 4955SOL    MW419594   3.049   3.223   5.477 -0.2669 -0.0587  0.1525
 4956SOL     OW19595   2.918   4.552   2.556  0.0710 -0.2245  0.2170
 4956SOL    HW219596   3.001   4.507   2.546  0.1298 -0.1712  0.4542
 4956SOL    HW319597   2.938   4.645   2.540  0.2719 -0.0635  1.3017
 4956SOL    MW419598   2.931   4.559   2.553  0.4980 -0.5704  0.0707
 4957SOL     OW19599   0.171   2.551   1.042  0.1299 -0.2321  0.3106
 4957SOL    HW219600   0.078   2.567   1.030  0.5778  1.7066 -1.3571
 4957SOL    HW319601   0.198   2.504   0.963  0.6921 -0.1043  0.4164
 4957SOL    MW419602   0.162   2.547   1.030  0.1141  0.1723 -0.2305
 4958SOL     OW19603   4.190   5.338   4.505 -0.5018  0.1024  0.5947
 4958SOL    HW219604   4.099   5.352   4.480 -0.4359 -1.3337 -0.5796
 4958SOL    HW319605   4.236   5.327   4.421  0.8355  1.2037  1.1477
 4958SOL    MW419606   4.184   5.339   4.490  0.0711  0.6305 -0.1171
 4959SOL     OW19607   5.771   4.709   0.740  0.0741  0.4602 -0.0218
 4959SOL    HW219608   5.846   4.674   0.787 -0.2090  0.9668  0.8243
 4959SOL    HW319609   5.778   4.804   0.751 -1.0525  0.4795  0.6586
 4959SOL    MW419610   5.782   4.717   0.747  0.0323 -0.0712  0.2691
 4960SOL     OW19611   1.978   0.143   4.388  0.1366  0.3174 -0.0190
 4960SOL    HW219612   2.053   0.099   4.427 -1.8905 -2.5136  1.0156
 4960SOL    HW319613   1.939   0.193   4.460 -0.7137 -0.7766  0.3001
 4960SOL    MW419614   1.983   0.144   4.402  0.2304 -0.0053  0.2653
 4961SOL     OW19615   3.562   0.984   1.905 -0.0448 -0.2244  0.0961
 4961SOL    HW219616   3.657   0.994   1.909 -0.0699 -0.0976  0.4464
 4961SOL    HW319617   3.537   0.954   1.992 -0.2176 -1.2516 -0.3011
 4961SOL    MW419618   3.571   0.982   1.917  0.3279  0.6322  0.0556
 4962SOL     OW19619   4.485   6.385   4.644 -0.3476  0.1535 -0.5575
 4962SOL    HW219620   4.466   6.461   4.588  1.0057 -1.1465 -2.9724
 4962SOL    HW319621   4.581   6.377   4.640 -0.4004 -1.1125  0.4207
 4962SOL    MW419622   4.495   6.394   4.636  0.5561 -0.2986  0.0206
 4963SOL     OW19623   4.145   0.840   1.593 -0.3940 -0.5235 -0.0808
 4963SOL    HW219624   4.157   0.935   1.589  1.9747 -0.7339  0.6702
 4963SOL    HW319625   4.096   0.825   1.674  1.2858 -0.0478  1.0809
 4963SOL    MW419626   4.140   0.851   1.603  0.4183  0.1528 -0.1030
 4964SOL     OW19627   5.262   3.804   2.774 -0.6908 -0.0885  0.2568
 4964SOL    HW219628   5.259   3.799   2.869 -0.8359  0.3252  0.2760
 4964SOL    HW319629   5.181   3.850   2.750  0.3360  1.7059  0.0688
 4964SOL    MW419630   5.251   3.809   2.783 -0.6964  0.4626 -0.2955
 4965SOL     OW19631   0.985   4.104   5.655  0.8226  0.2188 -0.1112
 4965SOL    HW219632   1.050   4.042   5.686  1.9076  1.0570 -0.6547
 4965SOL    HW319633   0.902   4.056   5.657  1.4611 -0.8706  0.5455
 4965SOL    MW419634   0.983   4.090   5.660 -0.0638  0.1650  0.0629
 4966SOL     OW19635   5.544   0.106   4.395  0.0495 -0.4376  0.1856
 4966SOL    HW219636   5.573   0.022   4.432 -0.5689  0.0273  1.8056
 4966SOL    HW319637   5.454   0.116   4.425 -0.4073  0.0986 -1.2981
 4966SOL    MW419638   5.536   0.096   4.404  0.8767 -0.0625  0.3328
 4967SOL     OW19639   4.387   1.781   3.214  0.0590 -0.1943  0.2257
 4967SOL    HW219640   4.371   1.814   3.302  0.4498 -1.8902  0.9874
 4967SOL    HW319641   4.479   1.751   3.216  0.3653  0.5844 -1.0480
 4967SOL    MW419642   4.397   1.781   3.226  0.0742  0.1138  0.1497
 4968SOL     OW19643   3.622   0.239   6.042 -0.3520  0.0182 -0.5523
 4968SOL    HW219644   3.642   0.197   5.959  0.9276  1.7027 -1.1590
 4968SOL    HW319645   3.527   0.235   6.049 -0.4637 -0.3403 -1.9998
 4968SOL    MW419646   3.612   0.233   6.032  0.2389 -0.3022  0.5828
 4969SOL     OW19647   2.965   4.496   0.385  0.2436  0.0028  0.4734
 4969SOL    HW219648   2.962   4.592   0.385 -3.2538  0.0985 -2.4791
 4969SOL    HW319649   2.906   4.470   0.455 -0.1717  0.0737  0.1546
 4969SOL    MW419650   2.957   4.505   0.394 -0.0719 -0.9258  0.4019
 4970SOL     OW19651   3.338   5.659   0.249 -0.1700  0.0275  0.6881
 4970SOL    HW219652   3.315   5.570   0.221 -1.3672 -0.0964  1.9216
 4970SOL    HW319653   3.257   5.709   0.237  1.0362  1.5126 -1.9425
 4970SOL    MW419654   3.324   5.654   0.244 -0.0050 -0.2818 -0.3544
 4971SOL     OW19655   5.655   3.873   6.309  0.6319 -0.3372  0.1286
 4971SOL    HW219656   5.709   3.796   6.327 -0.4090 -1.0858  0.1039
 4971SOL    HW319657   5.683   3.902   6.222  1.6659 -0.1232  0.5171
 4971SOL    MW419658   5.666   3.867   6.300  0.2436  0.0244 -0.4259
 4972SOL     OW19659   4.123   4.463   3.354  0.5629  0.5267 -0.1828
 4972SOL    HW219660   4.212   4.449   3.385 -0.0679 -1.2938  0.9709
 4972SOL    HW319661   4.068   4.417   3.418 -1.1147  0.5942 -1.5088
 4972SOL    MW419662   4.127   4.455   3.367  0.1415  0.3245  0.1191
 4973SOL     OW19663   4.500   4.092   4.088 -0.0883 -0.2326  0.5397
 4973SOL    HW219664   4.461   4.065   4.171 -0.0949 -0.5634  0.4268
 4973SOL    HW319665   4.469   4.182   4.076 -1.1552 -0.6308  0.2428
 4973SOL    MW419666   4.491   4.101   4.098 -0.0458  0.0930 -0.1620
 4974SOL     OW19667   4.556   4.020   1.576  0.4500 -0.0885  0.3044
 4974SOL    HW219668   4.508   4.066   1.507  1.4752  0.2797 -0.1894
 4974SOL    HW319669   4.634   4.074   1.591 -0.0871  0.2206  2.2724
 4974SOL    MW419670   4.560   4.033   1.569 -0.0517 -0.3651 -0.6173
 4975SOL     OW19671   5.123   2.230   0.019 -0.2627  0.5359  0.3000
 4975SOL    HW219672   5.100   2.163   0.083 -0.3129 -0.4378 -0.7241
 4975SOL    HW319673   5.219   2.237   0.025 -0.0137 -1.1728 -1.0623
 4975SOL    MW419674   5.133   2.222   0.028 -0.2116  0.4043  0.3739
 4976SOL     OW19675   1.789   4.599   2.461 -0.9097  0.2675 -0.2516
 4976SOL    HW219676   1.756   4.662   2.396 -2.0206 -1.9966 -2.0218
 4976SOL    HW319677   1.880   4.583   2.435 -0.7811  0.7559 -0.1049
 4976SOL    MW419678   1.797   4.605   2.449 -0.1811  0.3507 -0.1558
 4977SOL     OW19679   5.977   3.795   0.573 -0.2840  0.3916  0.2308
 4977SOL    HW219680   6.019   3.711   0.554 -1.7680 -0.2685 -0.3042
 4977SOL    HW319681   6.040   3.861   0.543  0.6540 -0.5373  0.1091
 4977SOL    MW419682   5.991   3.793   0.566  0.1092  0.1687  0.2990
 4978SOL     OW19683   3.750   5.773   6.408  0.5476 -0.3027 -0.2214
 4978SOL    HW219684   3.685   5.742   6.471  0.1967 -0.5887 -0.7161
 4978SOL    HW319685   3.777   5.694   6.360  3.7371 -0.8621  2.1492
 4978SOL    MW419686   3.745   5.758   6.410 -0.2315 -0.2178  0.1927
 4979SOL     OW19687   6.150   3.647   0.841 -0.2794 -0.2277 -0.2132
 4979SOL    HW219688   6.176   3.720   0.784 -1.8233 -0.1471 -0.8531
 4979SOL    HW319689   6.198   3.663   0.923  1.2981  0.1341 -1.1669
 4979SOL    MW419690   6.160   3.659   0.845 -0.0302  0.4041  0.0954
 4980SOL     OW19691   1.114   2.492   2.022 -0.0286  0.1496 -0.0700
 4980SOL    HW219692   1.124   2.488   1.927  0.2346  2.9283 -0.2479
 4980SOL    HW319693   1.124   2.402   2.052  0.2604 -0.7283 -2.6355
 4980SOL    MW419694   1.117   2.480   2.014  0.0473 -0.3213 -0.2232
 4981SOL     OW19695   2.738   2.308   2.019 -0.6891  0.6714 -0.4848
 4981SOL    HW219696   2.667   2.295   1.957 -0.7266 -2.4460  0.0486
 4981SOL    HW319697   2.713   2.257   2.096  0.5486  2.3446  1.1155
 4981SOL    MW419698   2.726   2.300   2.021 -0.1892 -0.0270  0.0286
 4982SOL     OW19699   0.697   4.628   5.362 -0.2299  0.1610  0.0334
 4982SOL    HW219700   0.774   4.671   5.399 -0.7210  1.5793 -0.5410
 4982SOL    HW319701   0.728   4.591   5.280  0.0849 -0.1853  0.3048
 4982SOL    MW419702   0.712   4.629   5.356 -0.6276  0.6187  0.2453
 4983SOL     OW19703   4.659   2.042   0.175  0.5247 -0.3555 -0.0327
 4983SOL    HW219704   4.624   1.962   0.137 -2.7690  0.0904  1.6494
 4983SOL    HW319705   4.603   2.059   0.251  2.9678  1.9677  1.4578
 4983SOL    MW419706   4.647   2.034   0.180  0.5252 -0.0249  0.0781
 4984SOL     OW19707   1.781   4.203   5.152 -0.8203  0.9143  0.1073
 4984SOL    HW219708   1.851   4.259   5.187  1.9982 -1.6520 -0.9723
 4984SOL    HW319709   1.778   4.225   5.059  0.7239 -0.9301 -0.4523
 4984SOL    MW419710   1.790   4.214   5.144  0.2652 -0.0835 -0.4508
 4985SOL     OW19711   5.072   5.106   2.880  0.0183  0.2525 -0.2662
 4985SOL    HW219712   5.053   5.185   2.930 -0.6685  0.6752 -1.1700
 4985SOL    HW319713   5.090   5.039   2.946 -0.7712  0.8232  0.5385
 4985SOL    MW419714   5.072   5.108   2.895  0.0142 -0.0226 -0.5764
 4986SOL     OW19715   0.249   5.023   5.088 -0.3326  0.3825 -0.0213
 4986SOL    HW219716   0.277   5.039   5.178 -1.9068  0.8757  0.4122
 4986SOL    HW319717   0.222   5.110   5.056 -1.7331 -0.1013 -0.2425
 4986SOL    MW419718   0.249   5.037   5.096  0.3879 -0.5653  0.0333
 4987SOL     OW19719   6.110   3.397   0.683 -0.6585 -0.0684 -0.2038
 4987SOL    HW219720   6.082   3.461   0.748 -0.5434 -1.2880  1.1057
 4987SOL    HW319721   6.140   3.450   0.609  2.3930  1.5941  1.9665
 4987SOL    MW419722   6.110   3.413   0.682  0.8696 -0.2357 -0.2502
 4988SOL     OW19723   3.247   4.827   2.213  0.9633 -0.0272 -0.7918
 4988SOL    HW219724   3.212   4.913   2.238  1.3829  0.4083 -1.6828
 4988SOL    HW319725   3.310   4.806   2.283  1.3455  0.6945 -0.9082
 4988SOL    MW419726   3.251   4.836   2.226 -0.7939  0.2957  0.2673
 4989SOL     OW19727   2.556   5.534   2.257 -0.3691  0.7696  0.1002
 4989SOL    HW219728   2.618   5.465   2.282  0.0124  1.1430  0.1986
 4989SOL    HW319729   2.575   5.550   2.164  1.1065  2.3052  0.6180
 4989SOL    MW419730   2.567   5.527   2.248  0.1474  0.0932 -0.2943
 4990SOL     OW19731   6.342   0.942   5.475 -0.4190  0.0810  0.3233
 4990SOL    HW219732   6.387   0.959   5.392  1.4881 -0.5732  1.1673
 4990SOL    HW319733   6.249   0.947   5.453  0.0375  0.4693 -1.7314
 4990SOL    MW419734   6.336   0.945   5.461 -0.6455 -0.0824 -0.2564
 4991SOL     OW19735   4.488   1.770   1.092  0.1397  0.1457  0.5773
 4991SOL    HW219736   4.508   1.840   1.155  0.4768 -1.3678  2.2508
 4991SOL    HW319737   4.395   1.783   1.072 -0.3561 -0.0864  2.4621
 4991SOL    MW419738   4.478   1.781   1.098 -0.4227 -0.2126 -0.7474
 4992SOL     OW19739   4.865   3.992   1.347  0.5512 -0.2220  0.2775
 4992SOL    HW219740   4.947   3.951   1.318 -1.0967 -3.8307  0.1014
 4992SOL    HW319741   4.797   3.940   1.304 -1.8802  2.4086  0.7028
 4992SOL    MW419742   4.867   3.980   1.337 -0.2113  0.1264  0.0438
 4993SOL     OW19743   3.862   3.460   3.459 -0.4190  0.7271 -0.0270
 4993SOL    HW219744   3.822   3.416   3.534 -2.1793  0.8285 -0.8731
 4993SOL    HW319745   3.926   3.520   3.498  1.1355 -1.5588  1.2255
 4993SOL    MW419746   3.865   3.462   3.474 -0.0315 -0.0640 -0.1744
 4994SOL     OW19747   1.351   6.352   3.156 -0.2921 -0.1577  0.4208
 4994SOL    HW219748   1.378   6.443   3.167 -1.1056  0.0777  0.5421
 4994SOL    HW319749   1.267   6.357   3.109  0.3496 -0.9089 -0.8569
 4994SOL    MW419750   1.343   6.365   3.151 -0.7730  0.0321  0.3120
 4995SOL     OW19751   6.376   5.375   1.337 -0.0782  0.4823 -0.0199
 4995SOL    HW219752   6.397   5.382   1.431  0.1131  0.6608 -0.0743
 4995SOL    HW319753   6.326   5.455   1.318 -1.8863 -0.5105  0.3804
 4995SOL    MW419754   6.373   5.387   1.347  0.0298  0.5428  0.3477
 4996SOL     OW19755   5.250   5.040   5.417 -0.2290  0.4432 -0.2369
 4996SOL    HW219756   5.276   4.969   5.477  0.5341 -0.9295 -2.1066
 4996SOL    HW319757   5.325   5.099   5.417  0.2449 -0.1399 -0.6649
 4996SOL    MW419758   5.263   5.038   5.425  0.7860 -0.1579 -0.1108
 4997SOL     OW19759   2.734   0.899   4.735  0.2289 -0.7281 -0.3357
 4997SOL    HW219760   2.758   0.874   4.646 -0.2379  1.1183 -1.0095
 4997SOL    HW319761   2.792   0.972   4.756 -1.3711  0.5067 -0.0854
 4997SOL    MW419762   2.745   0.905   4.726  0.5634 -0.0283  0.2278
 4998SOL     OW19763   6.210   0.282   0.731  0.3050 -0.2791 -0.2404
 4998SOL    HW219764   6.267   0.220   0.778 -1.6508 -2.0507 -0.0479
 4998SOL    HW319765   6.129   0.283   0.782 -0.3991  0.9784 -1.3256
 4998SOL    MW419766   6.207   0.274   0.744 -0.1117 -0.1995  0.1733
 4999SOL     OW19767   1.039   1.796   2.655 -0.3489  0.0497 -0.2170
 4999SOL    HW219768   0.968   1.859   2.643 -1.5386 -1.3965 -1.1716
 4999SOL    HW319769   1.032   1.770   2.747 -0.2908  0.7603 -0.0023
 4999SOL    MW419770   1.029   1.801   2.666  0.7680 -0.2145 -0.0933
 5000SOL     OW19771   3.681   4.558   1.833  0.1026 -0.1900 -0.3896
 5000SOL    HW219772   3.747   4.511   1.782  0.2097 -1.3068  0.7192
 5000SOL    HW319773   3.692   4.525   1.922 -0.8740  0.8229  0.1291
 5000SOL    MW419774   3.691   4.547   1.838 -0.4335 -0.0257  0.3061
 5001SOL     OW19775   5.428   0.448   3.718  0.3069 -0.3754  0.0732
 5001SOL    HW219776   5.393   0.364   3.689 -2.4406  1.1618 -1.4807
 5001SOL    HW319777   5.380   0.468   3.799  1.1986 -0.4308  0.6303
 5001SOL    MW419778   5.417   0.440   3.725 -0.1175  0.2246 -0.1027
 5002SOL     OW19779   2.117   5.071   0.623  0.3020  0.2494  0.1787
 5002SOL    HW219780   2.040   5.016   0.606  1.4350 -1.1606 -0.5509
 5002SOL    HW319781   2.086   5.160   0.606 -1.5678 -0.1030  1.3282
 5002SOL    MW419782   2.102   5.076   0.619  0.4157 -0.8589 -0.1879
 5003SOL     OW19783   5.156   3.056   1.227  0.4284  0.1636  0.0724
 5003SOL    HW219784   5.081   3.114   1.215 -0.4170 -0.9697 -0.3647
 5003SOL    HW319785   5.161   3.042   1.321 -0.0534  0.0824  0.0901
 5003SOL    MW419786   5.147   3.062   1.238 -0.1384  1.0891  0.5423
 5004SOL     OW19787   5.909   1.010   4.255 -0.2761  0.0292  0.3368
 5004SOL    HW219788   5.895   1.072   4.184 -0.8489  1.1733  1.3948
 5004SOL    HW319789   5.949   0.933   4.214 -0.1312  0.8561 -1.1107
 5004SOL    MW419790   5.912   1.008   4.240 -0.4913  0.3104  0.2449
 5005SOL     OW19791   0.113   3.793   2.426  0.2581  0.0687  0.4493
 5005SOL    HW219792   0.153   3.742   2.497 -1.1664  1.1805  2.1235
 5005SOL    HW319793   0.183   3.805   2.363  0.8853 -3.2538  0.3377
 5005SOL    MW419794   0.127   3.788   2.427  0.6385  0.3651  0.1289
 5006SOL     OW19795   3.417   1.054   4.073 -0.4844  0.0462 -0.0016
 5006SOL    HW219796   3.489   1.035   4.013  0.6639  0.7908  1.0812
 5006SOL    HW319797   3.380   1.136   4.040  0.2484  0.5406  0.3616
 5006SOL    MW419798   3.422   1.062   4.061  0.3448  0.0899  0.6068
 5007SOL     OW19799   3.563   0.580   1.686 -0.8766  0.0426 -0.3110
 5007SOL    HW219800   3.558   0.676   1.692 -4.3170  0.0870 -1.5060
 5007SOL    HW319801   3.583   0.562   1.594  0.1732 -0.4343 -0.0056
 5007SOL    MW419802   3.565   0.591   1.675 -0.1674  0.1846  0.3506
 5008SOL     OW19803   4.842   2.146   5.951  0.3343 -0.5376 -0.6483
 5008SOL    HW219804   4.870   2.074   5.894  1.4764 -0.6215 -0.0034
 5008SOL    HW319805   4.879   2.224   5.910  0.4499 -0.5018 -0.4763
 5008SOL    MW419806   4.851   2.147   5.938  0.0062 -0.0118 -0.1510
 5009SOL     OW19807   3.650   1.466   5.851 -0.4323  0.1565 -0.4402
 5009SOL    HW219808   3.709   1.517   5.796  0.8498 -0.3478  0.4049
 5009SOL    HW319809   3.652   1.378   5.813 -0.2455  0.0247 -0.1339
 5009SOL    MW419810   3.658   1.461   5.839 -0.1975 -0.0343  0.5453
 5010SOL     OW19811   0.051   4.251   5.091  0.4009 -0.6475 -0.6241
 5010SOL    HW219812   0.031   4.174   5.038 -1.5289 -0.8054  0.2498
 5010SOL    HW319813  -0.034   4.292   5.108  1.2414  0.8991  0.1001
 5010SOL    MW419814   0.037   4.247   5.086  0.0165  0.0272 -0.7134
 5011SOL     OW19815   5.310   0.218   3.583  0.1077 -0.1784  0.9902
 5011SOL    HW219816   5.275   0.279   3.517  2.0443 -1.4344 -1.3637
 5011SOL    HW319817   5.237   0.202   3.642 -0.8319  3.4126  1.0016
 5011SOL    MW419818   5.296   0.224   3.582  0.5168  0.0759  0.3863
 5012SOL     OW19819   4.948   6.313   5.696 -0.4156 -0.2686  0.1611
 5012SOL    HW219820   4.910   6.366   5.767  0.5150 -0.8074  1.0944
 5012SOL    HW319821   4.887   6.239   5.686 -1.2631  0.5024 -0.5566
 5012SOL    MW419822   4.935   6.310   5.704  0.0032 -0.2129  0.0624
 5013SOL     OW19823   1.836   4.685   0.774 -0.1596  0.0973 -0.2505
 5013SOL    HW219824   1.834   4.593   0.748  0.0713 -0.3917  1.3064
 5013SOL    HW319825   1.757   4.696   0.827 -0.0219  0.7094 -0.1651
 5013SOL    MW419826   1.825   4.674   0.778  0.0005 -0.9424 -0.2744
 5014SOL     OW19827   1.155   5.164   4.681 -0.6317  0.2243 -0.0643
 5014SOL    HW219828   1.137   5.258   4.679  1.4164  0.7511  1.8923
 5014SOL    HW319829   1.108   5.131   4.757  1.8179  0.5301  1.6856
 5014SOL    MW419830   1.147   5.172   4.691  0.5947 -0.1966 -0.2095
 5015SOL     OW19831   4.143   0.873   1.039 -0.2675 -0.5189  0.9193
 5015SOL    HW219832   4.138   0.852   1.132 -1.1421  0.1785  1.0417
 5015SOL    HW319833   4.127   0.789   0.995 -0.6835 -0.6955  1.3960
 5015SOL    MW419834   4.140   0.859   1.045  0.0388 -0.2935 -0.6261
 5016SOL     OW19835   1.848   2.021   2.659  0.4369  0.6109 -0.5101
 5016SOL    HW219836   1.831   2.012   2.753 -1.0092 -1.1586 -0.8810
 5016SOL    HW319837   1.931   1.976   2.645  0.1888  0.0646 -0.2225
 5016SOL    MW419838   1.857   2.014   2.669 -0.8745 -0.3257  0.4875
 5017SOL     OW19839   1.472   5.353   5.466  1.0695  0.8086 -0.3181
 5017SOL    HW219840   1.428   5.334   5.549 -0.3836 -0.4817 -1.3308
 5017SOL    HW319841   1.486   5.448   5.468  0.6469  0.8673  1.1838
 5017SOL    MW419842   1.468   5.363   5.477  0.1508  0.4493  0.6165
 5018SOL     OW19843   5.614   4.563   4.710 -0.0831  0.5792  0.2808
 5018SOL    HW219844   5.533   4.522   4.739 -0.5501  1.3430  0.0871
 5018SOL    HW319845   5.633   4.628   4.778 -0.4895  1.4880 -0.4586
 5018SOL    MW419846   5.606   4.566   4.723  0.2263  0.2223 -0.1563
 5019SOL     OW19847   2.874   2.209   0.827  0.0758  0.1405  0.2030
 5019SOL    HW219848   2.879   2.296   0.788 -0.3904  0.0622 -0.0368
 5019SOL    HW319849   2.802   2.166   0.781  0.4229 -0.4348  0.1993
 5019SOL    MW419850   2.865   2.215   0.816  0.0628 -0.0940  0.1930
 5020SOL     OW19851   6.099   1.065   3.194  0.3070 -0.5663 -0.1498
 5020SOL    HW219852   6.161   1.081   3.266  0.2373  0.3126 -0.2745
 5020SOL    HW319853   6.015   1.052   3.238  0.6664 -2.3890  0.0601
 5020SOL    MW419854   6.096   1.065   3.209 -0.0459  0.3332  0.2709
 5021SOL     OW19855   4.460   1.766   5.108  0.3501  0.0365 -0.5097
 5021SOL    HW219856   4.366   1.749   5.102  0.5765 -1.5683 -0.1633
 5021SOL    HW319857   4.485   1.729   5.193  0.9993  2.0960  0.2586
 5021SOL    MW419858   4.451   1.759   5.119  0.1542 -0.1453  0.1421
 5022SOL     OW19859   4.558   6.204   4.883 -0.3041 -0.6165  0.7458
 5022SOL    HW219860   4.596   6.181   4.968  0.7716 -0.0804  0.4224
 5022SOL    HW319861   4.617   6.165   4.819 -0.2856  0.2288  0.2343
 5022SOL    MW419862   4.570   6.196   4.886  1.2843  0.0191  0.0617
 5023SOL     OW19863   1.312   2.163   5.831  0.4394 -0.5976  0.2209
 5023SOL    HW219864   1.280   2.086   5.878 -0.5187  1.5301  3.4598
 5023SOL    HW319865   1.377   2.201   5.890  1.4868  0.6518 -1.6584
 5023SOL    MW419866   1.316   2.158   5.845  0.0941  0.2290  0.1410
 5024SOL     OW19867   3.286   6.312   2.629  0.1783  0.2196  0.6433
 5024SOL    HW219868   3.210   6.358   2.592 -0.3199 -2.2153 -1.6248
 5024SOL    HW319869   3.361   6.350   2.583 -0.1566 -0.6645 -0.6728
 5024SOL    MW419870   3.286   6.323   2.618 -0.1954  0.2723  0.1513
 5025SOL     OW19871   3.507   5.373   6.342 -0.0129  0.1562  0.0325
 5025SOL    HW219872   3.423   5.400   6.305 -0.4753 -0.6746  0.4612
 5025SOL    HW319873   3.563   5.359   6.266 -0.2318  0.7762 -0.2525
 5025SOL    MW419874   3.503   5.375   6.327  0.7074  0.4088  0.0765
 5026SOL     OW19875   5.965   2.716   6.019 -0.2597 -0.0581  0.3185
 5026SOL    HW219876   5.957   2.803   5.978 -0.7369  0.1311  0.8029
 5026SOL    HW319877   5.987   2.658   5.946 -1.5354  0.1926 -0.3072
 5026SOL    MW419878   5.967   2.720   6.004 -0.1218 -0.4789  0.4505
 5027SOL     OW19879   2.283   0.135   0.644  0.4573  0.0879  0.3032
 5027SOL    HW219880   2.213   0.079   0.676 -1.7589  0.4944 -3.2828
 5027SOL    HW319881   2.283   0.211   0.702 -2.1522  0.0720  0.4246
 5027SOL    MW419882   2.274   0.137   0.656 -0.5989 -0.0264  1.0764
 5028SOL     OW19883   6.207   2.548   2.626 -0.4421  0.1791  0.2363
 5028SOL    HW219884   6.211   2.474   2.686 -1.6579 -2.7479 -2.9781
 5028SOL    HW319885   6.297   2.562   2.598 -0.5508 -3.7536 -2.9250
 5028SOL    MW419886   6.219   2.540   2.630 -0.9978  0.0736  0.2463
 5029SOL     OW19887   0.123   2.994   3.953  0.3964 -0.6089  0.0019
 5029SOL    HW219888   0.062   3.009   3.881  0.0362 -2.3270 -0.0743
 5029SOL    HW319889   0.161   3.081   3.970 -1.1236  0.2463 -0.7715
 5029SOL    MW419890   0.120   3.008   3.945 -0.0637 -0.0659  0.0432
 5030SOL     OW19891   4.753   1.269   1.176 -0.2009  0.3668 -0.3000
 5030SOL    HW219892   4.819   1.279   1.244 -2.2441  1.9231  1.6280
 5030SOL    HW319893   4.754   1.353   1.129 -1.5399  0.8896  0.5366
 5030SOL    MW419894   4.762   1.281   1.179  0.1667  0.1520 -0.0965
 5031SOL     OW19895   3.463   1.056   1.398 -0.0847 -0.2997  0.2783
 5031SOL    HW219896   3.557   1.072   1.408 -0.0809 -0.7670  1.0102
 5031SOL    HW319897   3.435   1.121   1.333  0.5106  0.6619  0.9557
 5031SOL    MW419898   3.471   1.067   1.391 -0.2222 -0.3211 -0.6154
 5032SOL     OW19899   1.212   5.564   5.351 -0.1827  0.0963 -0.0703
 5032SOL    HW219900   1.295   5.610   5.343 -0.0471 -0.1035  0.1878
 5032SOL    HW319901   1.213   5.501   5.279 -0.0550  0.0057  0.0112
 5032SOL    MW419902   1.223   5.562   5.340 -0.1753  0.2966 -0.1405
 5033SOL     OW19903   4.837   3.540   3.483 -0.2142 -1.1290 -0.0800
 5033SOL    HW219904   4.931   3.543   3.502 -0.4090  2.3361  1.1004
 5033SOL    HW319905   4.797   3.513   3.565 -0.3371  0.3767  0.3913
 5033SOL    MW419906   4.844   3.537   3.496  0.2241  0.2582 -0.1295
 5034SOL     OW19907   3.269   1.438   0.236 -0.3370 -0.4133  0.3918
 5034SOL    HW219908   3.242   1.371   0.173  1.3567  1.0371 -2.0353
 5034SOL    HW319909   3.195   1.498   0.241 -0.0743  0.0840 -1.2013
 5034SOL    MW419910   3.256   1.437   0.229  0.3971 -0.5827  0.0836
 5035SOL     OW19911   3.482   4.549   5.707  0.1762  0.0079  0.2987
 5035SOL    HW219912   3.459   4.634   5.744 -1.3413 -0.4766  0.5051
 5035SOL    HW319913   3.540   4.509   5.772  2.2825  1.5029 -0.5247
 5035SOL    MW419914   3.487   4.555   5.721  0.2102 -0.0634  0.1015
 5036SOL     OW19915   5.680   3.359   0.058 -0.3507  0.0838  0.5550
 5036SOL    HW219916   5.669   3.407   0.140  0.0460 -0.0445  0.6864
 5036SOL    HW319917   5.592   3.351   0.023 -0.8066 -1.5398  1.9143
 5036SOL    MW419918   5.667   3.364   0.064 -0.4712  0.4913  0.1357
 5037SOL     OW19919   0.108   3.058   1.713 -0.0831  0.1289  0.2345
 5037SOL    HW219920   0.059   3.116   1.771 -0.1008 -0.3183  0.6661
 5037SOL    HW319921   0.042   3.017   1.658 -0.0557  0.6441 -0.1948
 5037SOL    MW419922   0.093   3.060   1.713  0.4732  0.0464  0.4755
 5038SOL     OW19923   4.570   1.758   2.202  0.1965  0.3023  0.2252
 5038SOL    HW219924   4.559   1.833   2.262  2.7632 -0.0582  1.2678
 5038SOL    HW319925   4.665   1.745   2.198 -0.1693 -3.0697  0.2866
 5038SOL    MW419926   4.581   1.766   2.210 -0.2101  0.3518  0.1023
 5039SOL     OW19927   3.932   0.738   5.147  0.6180  0.0239 -0.1187
 5039SOL    HW219928   3.984   0.736   5.067  0.9288  0.5608  0.0635
 5039SOL    HW319929   3.896   0.827   5.149  3.0754  1.0764  1.8761
 5039SOL    MW419930   3.934   0.750   5.136  0.0026  0.4997  0.3601
 5040SOL     OW19931   5.213   1.009   2.587 -0.4221  0.3977 -0.2996
 5040SOL    HW219932   5.218   0.987   2.494  1.1911 -2.2733  0.2973
 5040SOL    HW319933   5.303   1.028   2.612 -0.9111  1.6053  0.6436
 5040SOL    MW419934   5.225   1.008   2.578  0.2999  0.3748 -0.6168
 5041SOL     OW19935   2.906   0.683   3.295 -0.1131 -0.5223  0.2820
 5041SOL    HW219936   2.938   0.593   3.290  0.7074 -0.3269  1.4886
 5041SOL    HW319937   2.855   0.686   3.376 -0.0961  0.1009  0.2758
 5041SOL    MW419938   2.904   0.671   3.305 -0.1633 -0.2022  0.0018
 5042SOL     OW19939   3.017   0.024   4.018 -1.1076 -0.4836 -0.3102
 5042SOL    HW219940   3.090  -0.014   4.066  0.1366  0.6920 -1.1930
 5042SOL    HW319941   2.943  -0.033   4.038 -0.6278 -0.2403  2.7563
 5042SOL    MW419942   3.017   0.011   4.027  0.3602  0.3232 -0.6891
 5043SOL     OW19943   3.070   6.025   3.766 -0.2172  0.3439 -0.0676
 5043SOL    HW219944   3.031   6.111   3.754  1.6552  1.0903 -1.1951
 5043SOL    HW319945   3.023   5.968   3.705  0.3815  1.2179 -1.3873
 5043SOL    MW419946   3.059   6.029   3.757  0.3665  0.2911 -0.0456
 5044SOL     OW19947   3.509   0.689   6.356 -0.3548 -0.9133  0.0768
 5044SOL    HW219948   3.527   0.761   6.296 -0.9696 -1.1263 -0.3654
 5044SOL    HW319949   3.477   0.618   6.301  1.2060 -1.9070  0.3743
 5044SOL    MW419950   3.507   0.689   6.341 -0.2288 -0.1957  0.4768
 5045SOL     OW19951   1.852   3.021   5.388 -0.1934 -0.6522  0.3085
 5045SOL    HW219952   1.866   2.976   5.472  0.1337 -1.0164  0.0616
 5045SOL    HW319953   1.799   3.098   5.411 -0.4255 -0.9516  0.7916
 5045SOL    MW419954   1.847   3.026   5.402 -1.0123 -0.5644 -0.2494
 5046SOL     OW19955   0.222   1.185   6.168  0.1725  0.7476  0.2790
 5046SOL    HW219956   0.183   1.131   6.237  0.1141 -0.6658 -0.8140
 5046SOL    HW319957   0.149   1.234   6.131 -0.0863  0.2738  0.1508
 5046SOL    MW419958   0.207   1.185   6.172  0.1039 -0.3954 -0.0532
 5047SOL     OW19959   2.035   3.361   0.163 -0.0546 -0.2597 -0.1186
 5047SOL    HW219960   2.131   3.352   0.161 -0.1079 -0.8402 -1.0986
 5047SOL    HW319961   2.007   3.300   0.231  0.2158 -0.8678 -0.5379
 5047SOL    MW419962   2.044   3.351   0.171  0.2481  0.0366  0.3893
 5048SOL     OW19963   4.026   5.052   1.273  0.9827  0.3648 -0.6035
 5048SOL    HW219964   4.024   5.058   1.369 -0.7240 -1.1950 -0.5054
 5048SOL    HW319965   4.088   5.121   1.247  1.5313  0.7964  1.6009
 5048SOL    MW419966   4.034   5.062   1.282 -0.0959 -0.2882 -0.1719
 5049SOL     OW19967   0.076   0.580   4.946 -0.0053  0.1169 -0.1731
 5049SOL    HW219968   0.030   0.498   4.930  1.6361 -1.0603  0.8342
 5049SOL    HW319969   0.136   0.560   5.018 -0.5274  2.5887  1.0353
 5049SOL    MW419970   0.078   0.566   4.954 -0.0155 -0.0704  0.0238
 5050SOL     OW19971   3.646   2.005   2.924 -0.0859 -0.4019 -0.0777
 5050SOL    HW219972   3.694   2.005   2.841  0.3809 -0.0792  0.1839
 5050SOL    HW319973   3.558   1.975   2.902  0.5196 -2.0009 -0.4062
 5050SOL    MW419974   3.641   2.001   2.910 -0.0899  0.1207  0.2477
 5051SOL     OW19975   1.382   2.688   0.910 -0.2368 -0.1255 -0.2434
 5051SOL    HW219976   1.383   2.636   0.991  0.5984  0.2106 -0.0262
 5051SOL    HW319977   1.466   2.734   0.911 -0.3190  0.0496 -1.1980
 5051SOL    MW419978   1.394   2.687   0.921  0.1562  0.4650  0.4393
 5052SOL     OW19979   5.044   0.308   0.394 -0.0098  0.1307 -0.1555
 5052SOL    HW219980   5.011   0.322   0.483  1.8561  0.3276  0.5441
 5052SOL    HW319981   5.139   0.301   0.404  0.2065 -0.3477 -2.0826
 5052SOL    MW419982   5.052   0.309   0.407 -0.0832 -0.0055 -0.0408
 5053SOL     OW19983   0.034   1.461   4.172  0.5679  0.2733 -0.1469
 5053SOL    HW219984   0.023   1.412   4.091 -1.7546  1.5560 -0.7000
 5053SOL    HW319985   0.088   1.536   4.148  1.1521 -0.1322 -0.1240
 5053SOL    MW419986   0.040   1.464   4.158 -0.1989 -0.4363 -0.2206
 5054SOL     OW19987   5.522   6.211   1.706 -0.2307 -0.5463 -0.4701
 5054SOL    HW219988   5.599   6.267   1.715 -0.3571 -0.4302 -0.0949
 5054SOL    HW319989   5.526   6.180   1.615 -0.4964  0.5628 -0.8793
 5054SOL    MW419990   5.533   6.214   1.695 -0.3958  0.1226 -0.4317
 5055SOL     OW19991   5.541   1.432   1.842  0.4110  0.5424 -0.2993
 5055SOL    HW219992   5.575   1.423   1.931 -0.6414  0.1344  0.0831
 5055SOL    HW319993   5.499   1.518   1.841  0.5028  0.5843 -0.4209
 5055SOL    MW419994   5.540   1.442   1.854 -0.1421 -0.5786 -0.1474
 5056SOL     OW19995   5.400   2.599   0.670 -0.6755  0.0959  0.1179
 5056SOL    HW219996   5.334   2.530   0.679  0.5719 -1.3453 -1.2252
 5056SOL    HW319997   5.413   2.607   0.576 -0.8786  2.3320  0.2218
 5056SOL    MW419998   5.393   2.591   0.659  0.0398  0.5387 -0.3639
 5057SOL     OW19999   2.732   1.190   5.812  0.0295  0.1494  0.1033
 5057SOL    HW220000   2.695   1.112   5.770 -0.4163 -0.2048  1.1349
 5057SOL    HW320001   2.716   1.260   5.748 -3.5788  0.2660  0.9315
 5057SOL    MW420002   2.725   1.189   5.798 -0.2230 -0.4629 -0.9779
 5058SOL     OW20003   5.880   0.809   1.494  0.3899 -0.5205  0.0916
 5058SOL    HW220004   5.914   0.885   1.540 -0.6878 -1.3818  2.4692
 5058SOL    HW320005   5.789   0.831   1.475 -0.0682 -1.3215  1.2107
 5058SOL    MW420006   5.872   0.822   1.498  0.0004 -0.8308  0.6328
 5059SOL     OW20007   2.517   2.098   3.068 -0.2665 -0.1830 -0.1808
 5059SOL    HW220008   2.433   2.119   3.109  0.1278 -0.0503  0.5871
 5059SOL    HW320009   2.578   2.163   3.103  0.2897 -0.6696 -0.2178
 5059SOL    MW420010   2.514   2.109   3.078  0.4514  0.2092  0.4517
 5060SOL     OW20011   1.684   5.583   4.775 -0.0587 -0.6162  0.0723
 5060SOL    HW220012   1.623   5.594   4.848 -0.6589 -0.0767 -0.4991
 5060SOL    HW320013   1.642   5.518   4.719 -0.8121  0.7750 -1.0281
 5060SOL    MW420014   1.670   5.576   4.777 -0.6741 -0.6601  0.0336
 5061SOL     OW20015   5.147   3.611   1.376 -0.2929  0.1484  0.0534
 5061SOL    HW220016   5.137   3.565   1.293  1.9521  0.2757 -0.3448
 5061SOL    HW320017   5.167   3.702   1.351 -0.5835  0.4114  0.7557
 5061SOL    MW420018   5.148   3.617   1.362 -0.5215  0.1258 -0.2243
 5062SOL     OW20019   5.912   1.577   0.608 -0.5987  0.6859  0.5844
 5062SOL    HW220020   5.895   1.589   0.701  0.4153  0.2140  0.8433
 5062SOL    HW320021   5.964   1.653   0.583 -0.9998  0.8909  0.3595
 5062SOL    MW420022   5.916   1.589   0.617  0.1881 -0.2511 -0.0709
 5063SOL     OW20023   3.501   6.411   2.472 -0.5680  0.4446 -0.1142
 5063SOL    HW220024   3.484   6.391   2.380  0.8347  0.8305 -0.4866
 5063SOL    HW320025   3.583   6.366   2.491 -1.0076  0.1152  1.0480
 5063SOL    MW420026   3.509   6.403   2.462 -0.2862  1.1127 -0.1284
 5064SOL     OW20027   3.898   1.670   0.579  0.6452 -0.7133  0.3880
 5064SOL    HW220028   3.927   1.582   0.554  0.1693 -0.6647 -0.3594
 5064SOL    HW320029   3.873   1.711   0.497 -1.7985 -0.8341  1.0050
 5064SOL    MW420030   3.898   1.664   0.565 -0.2352  0.3423  0.6785
 5065SOL     OW20031   1.752   1.035   2.951 -0.3453 -0.8093  0.5222
 5065SOL    HW220032   1.706   0.974   3.009 -1.1547 -1.0093 -0.2933
 5065SOL    HW320033   1.841   1.040   2.986  0.1357 -3.4761 -0.0971
 5065SOL    MW420034   1.758   1.028   2.963 -0.6677 -0.3188 -0.3553
 5066SOL     OW20035   5.936   4.355   5.636 -0.1662 -0.0548  0.6999
 5066SOL    HW220036   5.937   4.292   5.707 -1.6096  0.8163  1.5461
 5066SOL    HW320037   5.858   4.408   5.652  0.9429  1.9072 -0.0052
 5066SOL    MW420038   5.926   4.354   5.647  0.2978  0.1774 -0.4144
 5067SOL     OW20039   4.122   4.744   5.363 -0.2673  0.0695 -0.7142
 5067SOL    HW220040   4.047   4.685   5.351 -0.6614  1.0014 -3.5898
 5067SOL    HW320041   4.194   4.699   5.317  0.1742  0.5224 -0.4674
 5067SOL    MW420042   4.121   4.730   5.355  0.2073  0.4229 -0.7328
 5068SOL     OW20043   0.689   1.947   2.963  0.8647 -0.1959  1.0641
 5068SOL    HW220044   0.676   2.026   3.015 -0.7788 -0.0194  0.4615
 5068SOL    HW320045   0.614   1.946   2.903  1.7248 -1.3565 -0.0383
 5068SOL    MW420046   0.677   1.958   2.962  0.0571 -0.5774 -0.3453
 5069SOL     OW20047   4.651   0.916   3.030 -0.1504  0.2954  0.0352
 5069SOL    HW220048   4.655   0.820   3.030 -0.4194  0.2622 -1.5421
 5069SOL    HW320049   4.562   0.937   3.004 -0.0708  0.9776  0.2947
 5069SOL    MW420050   4.640   0.906   3.026  0.1148  0.6550 -0.0347
 5070SOL     OW20051   1.653   6.082   1.974 -0.1139  0.0390  0.0739
 5070SOL    HW220052   1.727   6.073   1.914 -1.3312  0.5918 -1.5760
 5070SOL    HW320053   1.692   6.072   2.061  1.6266 -1.3511 -0.7885
 5070SOL    MW420054   1.668   6.079   1.978 -0.5851 -0.3266  0.4993
 5071SOL     OW20055   0.278   2.892   2.239  0.0166 -0.4549 -0.1615
 5071SOL    HW220056   0.298   2.845   2.320  0.4857 -0.8049 -0.4771
 5071SOL    HW320057   0.364   2.912   2.201 -0.1026  1.6693  0.5240
 5071SOL    MW420058   0.292   2.889   2.245  0.1877  0.6834 -0.4670
 5072SOL     OW20059   4.005   4.580   6.196 -0.0415  0.0688  0.4772
 5072SOL    HW220060   4.043   4.667   6.188  0.3507 -0.1327  0.1173
 5072SOL    HW320061   4.078   4.520   6.183 -0.7809 -0.3680 -2.2801
 5072SOL    MW420062   4.019   4.584   6.193  0.3718 -0.6050 -0.0628
 5073SOL     OW20063   4.336   0.613   4.063  0.0871  0.0411  0.4075
 5073SOL    HW220064   4.268   0.629   3.997  0.5220  1.1639  0.2030
 5073SOL    HW320065   4.417   0.641   4.020  0.5977 -0.7137  0.8663
 5073SOL    MW420066   4.338   0.619   4.048 -0.2787 -0.0202 -0.1553
 5074SOL     OW20067   2.915   5.153   3.946  0.4491 -0.0070  0.1705
 5074SOL    HW220068   3.000   5.169   3.987  0.8647 -1.4524 -0.0975
 5074SOL    HW320069   2.860   5.117   4.015  0.2704  0.2291  0.1550
 5074SOL    MW420070   2.919   5.151   3.960 -0.3740  0.3611  0.2893
 5075SOL     OW20071   3.396   1.460   0.490 -0.2867 -0.7226 -0.2202
 5075SOL    HW220072   3.348   1.452   0.408 -0.0140 -1.3325 -0.3252
 5075SOL    HW320073   3.488   1.472   0.463 -0.3885  0.6170 -0.0268
 5075SOL    MW420074   3.402   1.461   0.476  0.0853 -0.1630 -0.2771
 5076SOL     OW20075   2.546   1.604   1.690 -0.3142  0.2038 -0.2425
 5076SOL    HW220076   2.583   1.588   1.604  1.0768 -0.6349  0.4684
 5076SOL    HW320077   2.616   1.646   1.739 -1.8611  2.9664 -0.1792
 5076SOL    MW420078   2.560   1.608   1.685  0.7431  0.0057 -0.5869
 5077SOL     OW20079   5.816   1.989   2.011  0.5135  0.4370 -0.2101
 5077SOL    HW220080   5.883   2.054   1.990 -0.7940  1.2955 -1.9847
 5077SOL    HW320081   5.777   1.966   1.927 -2.0741  0.7191  0.8028
 5077SOL    MW420082   5.820   1.995   1.998 -0.1990  0.2207  0.1002
 5078SOL     OW20083   2.992   3.466   0.544  0.5379  0.0292  0.2000
 5078SOL    HW220084   3.057   3.458   0.474  0.0017 -0.3933 -0.2533
 5078SOL    HW320085   2.916   3.418   0.513  1.4224 -3.1905  2.4757
 5078SOL    MW420086   2.991   3.459   0.531  0.4662  0.3982  0.4617
 5079SOL     OW20087   1.021   0.717   0.039 -0.1899  0.1354  0.1778
 5079SOL    HW220088   0.962   0.647   0.010 -0.6830  0.3692  0.6086
 5079SOL    HW320089   1.069   0.679   0.112 -1.2247  0.5767  1.1216
 5079SOL    MW420090   1.019   0.703   0.045  0.1064 -0.6123  0.0033
 5080SOL     OW20091   3.898   1.787   5.089  0.0527 -0.0277  0.0021
 5080SOL    HW220092   3.949   1.863   5.061  0.1743  0.4939  1.5501
 5080SOL    HW320093   3.813   1.798   5.045 -0.4072  1.7634  1.2445
 5080SOL    MW420094   3.894   1.799   5.079  0.1735 -0.3775  0.5949
 5081SOL     OW20095   4.017   0.468   4.675  0.3238 -0.1840 -0.1770
 5081SOL    HW220096   3.978   0.413   4.607 -0.6345 -2.1843  1.8564
 5081SOL    HW320097   3.957   0.542   4.682 -0.9063 -1.1772  0.1185
 5081SOL    MW420098   4.004   0.471   4.667  0.3593  0.1552 -0.1255
 5082SOL     OW20099   3.398   6.003   5.392  0.0519 -0.7047 -0.2004
 5082SOL    HW220100   3.429   5.995   5.302  0.7438  1.3262 -0.1739
 5082SOL    HW320101   3.475   5.986   5.446 -0.0714 -0.6601 -0.0102
 5082SOL    MW420102   3.412   5.999   5.387 -0.0277  0.1176 -0.4075
 5083SOL     OW20103   4.563   1.022   3.941 -0.5838 -0.4752  0.0191
 5083SOL    HW220104   4.521   1.060   3.864 -1.3249  1.1299  1.1355
 5083SOL    HW320105   4.551   1.088   4.009  2.1669 -0.7857  0.9103
 5083SOL    MW420106   4.556   1.036   3.940  0.1189 -0.0231 -0.1585
 5084SOL     OW20107   4.915   3.401   0.740  0.1633  0.9198  0.0682
 5084SOL    HW220108   4.898   3.332   0.804  2.1147  0.9509  0.6947
 5084SOL    HW320109   4.833   3.410   0.692 -0.4136 -1.2358  0.5340
 5084SOL    MW420110   4.902   3.393   0.742  0.8210 -0.6136  0.7617
 5085SOL     OW20111   2.728   5.978   4.357  0.1694  0.6570 -0.2918
 5085SOL    HW220112   2.780   6.053   4.326 -1.2567  1.5995 -0.5127
 5085SOL    HW320113   2.777   5.901   4.328  2.0981  1.4554  0.6226
 5085SOL    MW420114   2.742   5.978   4.349 -0.0813  0.1830  0.1139
 5086SOL     OW20115   6.147   3.844   5.074  0.0171  0.5449 -0.0336
 5086SOL    HW220116   6.126   3.823   4.983 -1.0163 -0.4611  0.4067
 5086SOL    HW320117   6.230   3.800   5.090  1.6836  3.0349 -1.2678
 5086SOL    MW420118   6.155   3.835   5.064  0.0425 -0.3222  0.2115
 5087SOL     OW20119   2.285   1.178   3.226 -0.4651  0.0136 -0.3550
 5087SOL    HW220120   2.231   1.236   3.173 -0.0186  0.6191 -0.1550
 5087SOL    HW320121   2.242   1.092   3.219 -1.9888  0.6502  0.5306
 5087SOL    MW420122   2.272   1.174   3.218 -0.0169 -0.6192 -1.0966
 5088SOL     OW20123   3.134   5.792   6.027 -0.5307 -0.1345  0.3176
 5088SOL    HW220124   3.166   5.862   6.084  1.2587  0.1149 -0.9138
 5088SOL    HW320125   3.201   5.723   6.035 -1.9079 -1.4480  0.9740
 5088SOL    MW420126   3.147   5.792   6.036  0.6127  0.0901 -0.1789
 5089SOL     OW20127   1.761   2.992   0.205 -0.0105 -0.4604  0.3199
 5089SOL    HW220128   1.772   3.006   0.111  0.2900 -1.1921  0.2438
 5089SOL    HW320129   1.726   2.903   0.212 -1.5269  0.1365  0.8188
 5089SOL    MW420130   1.758   2.982   0.194  0.4250 -0.0031 -0.4414
 5090SOL     OW20131   1.158   0.545   2.381  0.6489 -0.0414  0.7315
 5090SOL    HW220132   1.128   0.550   2.290  0.7667  0.6016  0.7240
 5090SOL    HW320133   1.191   0.455   2.390 -0.6585 -0.5633  0.5549
 5090SOL    MW420134   1.158   0.534   2.370  0.1871 -0.3611  0.0266
 5091SOL     OW20135   2.152   4.447   5.601  0.2886  0.5326 -0.2200
 5091SOL    HW220136   2.180   4.393   5.527 -0.0569 -0.6689  0.4940
 5091SOL    HW320137   2.232   4.465   5.650  0.3180  0.1182 -0.1133
 5091SOL    MW420138   2.166   4.442   5.598 -0.2674 -0.3661  0.2210
 5092SOL     OW20139   1.260   3.500   1.240  0.2789 -0.3688  0.4702
 5092SOL    HW220140   1.203   3.490   1.317  0.8408  1.1062  1.1183
 5092SOL    HW320141   1.226   3.578   1.196  0.6073 -0.6017 -0.2032
 5092SOL    MW420142   1.248   3.509   1.245 -0.3542 -0.1470 -0.3129
 5093SOL     OW20143   6.378   4.851   3.119  0.0908  0.8203 -0.0609
 5093SOL    HW220144   6.344   4.919   3.178  1.0486  0.3583  1.0712
 5093SOL    HW320145   6.463   4.885   3.090  0.3671  0.3195  0.1509
 5093SOL    MW420146   6.385   4.865   3.123 -0.5833  0.4250 -0.3127
 5094SOL     OW20147   6.381   6.135   0.279  0.8163 -0.0529 -0.2658
 5094SOL    HW220148   6.472   6.155   0.296  0.6715 -0.3651  0.9782
 5094SOL    HW320149   6.352   6.203   0.218  2.3085 -0.9206 -2.0384
 5094SOL    MW420150   6.389   6.146   0.273  0.3452 -0.6840 -0.3928
 5095SOL     OW20151   4.160   5.084   3.268 -0.2501 -0.0090  0.0418
 5095SOL    HW220152   4.136   5.161   3.321 -2.0279  0.4913 -1.4050
 5095SOL    HW320153   4.188   5.019   3.332 -1.9119  0.7113  1.5788
 5095SOL    MW420154   4.161   5.086   3.284  0.7451  0.3163  0.3755
 5096SOL     OW20155   6.163   6.151   5.673  0.1467  0.1117 -0.4005
 5096SOL    HW220156   6.144   6.058   5.691 -0.5572  0.3683  0.2878
 5096SOL    HW320157   6.230   6.150   5.606  0.1390 -0.9057 -0.4059
 5096SOL    MW420158   6.169   6.138   5.667  0.3281  0.4477 -0.2795
 5097SOL     OW20159   0.092   0.456   3.596 -0.3604 -0.6340  0.6770
 5097SOL    HW220160   0.094   0.518   3.669  0.0159  0.5420 -0.2948
 5097SOL    HW320161   0.175   0.469   3.550 -1.1741 -0.3143 -0.7800
 5097SOL    MW420162   0.103   0.466   3.599  0.2294  0.3811 -0.4242
 5098SOL     OW20163   2.550   1.007   0.414  0.3760 -0.5731  0.1565
 5098SOL    HW220164   2.634   0.965   0.433 -0.1383 -0.7598  2.2820
 5098SOL    HW320165   2.496   0.936   0.377  1.0699 -0.4836 -1.0879
 5098SOL    MW420166   2.554   0.992   0.411  0.2589 -0.0527 -0.2167
 5099SOL     OW20167   4.052   3.463   4.922 -0.2257 -0.8132  0.0023
 5099SOL    HW220168   4.094   3.477   4.837  0.4150 -0.1729  0.4106
 5099SOL    HW320169   3.961   3.488   4.908 -0.3117 -1.5003 -0.7061
 5099SOL    MW420170   4.045   3.468   4.909 -0.0065 -0.5829 -0.3258
 5100SOL     OW20171   4.312   2.255   0.106  0.3515  0.2378  0.1183
 5100SOL    HW220172   4.227   2.277   0.069  0.4292 -1.5525 -1.2263
 5100SOL    HW320173   4.366   2.333   0.089 -0.6441  0.8786 -0.1856
 5100SOL    MW420174   4.308   2.268   0.099  0.1336 -0.3550  0.0456
 5101SOL     OW20175   1.734   0.584   1.068 -0.2955 -0.3473  0.3583
 5101SOL    HW220176   1.768   0.496   1.083 -1.2160 -1.1349 -1.7348
 5101SOL    HW320177   1.654   0.588   1.121  0.3108 -0.3501  1.2950
 5101SOL    MW420178   1.728   0.573   1.077  0.4503 -0.3689 -0.5894
 5102SOL     OW20179   3.891   1.318   0.154 -0.1590 -0.5210  0.3787
 5102SOL    HW220180   3.927   1.407   0.155 -0.2574 -0.4707  1.8451
 5102SOL    HW320181   3.804   1.328   0.116 -0.0808 -0.0237  0.3227
 5102SOL    MW420182   3.884   1.331   0.149 -0.1692 -0.1328  0.1794
 5103SOL     OW20183   2.162   2.459   6.246  0.6294  0.0403 -0.2325
 5103SOL    HW220184   2.138   2.482   6.336 -0.5751 -0.8266 -0.3094
 5103SOL    HW320185   2.256   2.474   6.242  0.8812 -0.8501  1.4678
 5103SOL    MW420186   2.171   2.464   6.257 -0.2006 -0.4576 -0.0360
 5104SOL     OW20187   0.793   2.585   0.913  0.2231  0.3096 -0.5813
 5104SOL    HW220188   0.738   2.659   0.937 -0.5692 -0.0702 -1.1855
 5104SOL    HW320189   0.832   2.611   0.829 -2.3849 -1.0896 -2.3716
 5104SOL    MW420190   0.791   2.598   0.905 -0.0739  0.2883  0.0206
 5105SOL     OW20191   0.373   1.249   0.609  0.8198 -0.2755  0.0418
 5105SOL    HW220192   0.283   1.223   0.592  0.6488  0.0333  0.4720
 5105SOL    HW320193   0.406   1.280   0.525 -0.1004  1.5002  0.2911
 5105SOL    MW420194   0.366   1.249   0.596 -0.3885 -0.5114  0.0687
 5106SOL     OW20195   1.178   1.885   4.295  0.0560  0.1146  0.1439
 5106SOL    HW220196   1.225   1.856   4.217 -0.0990  1.6595 -0.5529
 5106SOL    HW320197   1.236   1.950   4.335 -0.6511  0.6569  0.3047
 5106SOL    MW420198   1.192   1.890   4.290 -0.2835 -0.3584  0.5781
 5107SOL     OW20199   2.540   0.436   3.791  0.1090 -0.0489 -0.2577
 5107SOL    HW220200   2.461   0.485   3.770 -0.3949 -1.0874 -0.8525
 5107SOL    HW320201   2.569   0.400   3.708 -0.1197 -1.6182  0.3159
 5107SOL    MW420202   2.534   0.438   3.778 -0.2161 -0.2026  0.1758
 5108SOL     OW20203   5.797   4.295   2.089  0.3718 -0.1715  0.2625
 5108SOL    HW220204   5.868   4.335   2.140 -0.9204  0.8566  1.3460
 5108SOL    HW320205   5.757   4.368   2.042  0.9244 -0.9691 -1.5244
 5108SOL    MW420206   5.801   4.310   2.090  0.3684  0.1979  0.2252
 5109SOL     OW20207   5.040   3.965   2.092 -0.2160  0.1146  0.1976
 5109SOL    HW220208   5.110   3.998   2.036 -1.1342 -1.6217 -2.1550
 5109SOL    HW320209   4.985   4.041   2.108 -0.4587  0.5339 -2.1823
 5109SOL    MW420210   5.042   3.979   2.087 -0.1741  0.0741 -0.0372
 5110SOL     OW20211   0.971   0.759   3.823 -0.3135 -0.0834  0.5636
 5110SOL    HW220212   0.877   0.756   3.837 -0.7229  1.0232 -1.5685
 5110SOL    HW320213   0.994   0.852   3.829  0.4832 -0.2402  0.1641
 5110SOL    MW420214   0.962   0.771   3.826  0.0887 -0.1629  0.4900
 5111SOL     OW20215   5.103   3.783   4.551 -0.5388 -0.4674  0.1453
 5111SOL    HW220216   5.145   3.732   4.620 -0.4447  0.2327  0.6157
 5111SOL    HW320217   5.108   3.727   4.473 -2.1156 -1.9775  1.0510
 5111SOL    MW420218   5.109   3.769   4.550  0.3966 -0.1107  0.1746
 5112SOL     OW20219   3.363   4.044   0.416  0.4980  0.7177 -0.0133
 5112SOL    HW220220   3.399   4.020   0.331 -0.4366 -0.0343 -0.2216
 5112SOL    HW320221   3.380   3.968   0.472  0.6296  0.9879  0.3155
 5112SOL    MW420222   3.370   4.031   0.412  0.2728  0.1724  0.1953
 5113SOL     OW20223   0.177   4.957   5.521 -0.2616  0.1841 -0.4619
 5113SOL    HW220224   0.215   4.971   5.608 -2.1167  0.5934  0.3248
 5113SOL    HW320225   0.245   4.988   5.461  1.2325 -0.4827  0.8001
 5113SOL    MW420226   0.191   4.963   5.525  0.4718  0.2653 -0.1392
 5114SOL     OW20227   0.861   0.887   3.253 -0.1996  0.6853  0.2057
 5114SOL    HW220228   0.921   0.920   3.320  1.3087 -0.3222 -0.5930
 5114SOL    HW320229   0.884   0.936   3.174  1.0201 -1.1109 -0.6098
 5114SOL    MW420230   0.872   0.898   3.252  0.3992 -0.0308  0.4417
 5115SOL     OW20231   2.618   6.331   1.678  0.0498  1.0437  0.3544
 5115SOL    HW220232   2.696   6.283   1.707 -0.6480 -0.5697 -0.2887
 5115SOL    HW320233   2.586   6.280   1.604 -0.1817  3.1197 -1.0306
 5115SOL    MW420234   2.624   6.318   1.672  0.0988 -1.1966 -0.4760
 5116SOL     OW20235   4.739   1.326   1.633  0.0059  0.0048  0.0888
 5116SOL    HW220236   4.755   1.344   1.726  0.9883  0.1939 -0.1057
 5116SOL    HW320237   4.645   1.309   1.628 -0.4526  2.0480  0.7822
 5116SOL    MW420238   4.729   1.326   1.645  0.3350 -0.3225 -0.5871
 5117SOL     OW20239   2.544   2.193   1.140 -0.0721  0.1404 -0.1836
 5117SOL    HW220240   2.493   2.211   1.061 -0.3219 -0.9071 -0.2627
 5117SOL    HW320241   2.633   2.221   1.118  0.5163 -2.7262 -1.8827
 5117SOL    MW420242   2.549   2.199   1.127  0.2358  0.5752  0.0447
 5118SOL     OW20243   5.422   2.602   1.589 -0.1767  0.7160 -0.4313
 5118SOL    HW220244   5.418   2.506   1.588 -1.7186  0.7502 -1.6285
 5118SOL    HW320245   5.412   2.626   1.682  1.6429 -0.2781  0.0673
 5118SOL    MW420246   5.420   2.593   1.601 -0.0720 -0.2186  0.2138
 5119SOL     OW20247   1.515   2.875   0.668 -0.8671 -0.7711  0.0531
 5119SOL    HW220248   1.420   2.871   0.675 -0.8189 -0.1508  1.3775
 5119SOL    HW320249   1.546   2.884   0.758  0.2075  3.5103 -0.5219
 5119SOL    MW420250   1.507   2.876   0.681 -0.5632 -0.1280 -0.2114
 5120SOL     OW20251   2.064   3.703   2.571 -0.2311 -0.4486 -0.2997
 5120SOL    HW220252   2.073   3.743   2.658  1.5693 -0.6890 -0.3252
 5120SOL    HW320253   2.143   3.730   2.525 -0.9697 -0.6767 -1.7340
 5120SOL    MW420254   2.076   3.712   2.577 -0.0146  0.4433  0.0293
 5121SOL     OW20255   0.162   5.252   1.198  0.6304 -0.4140 -0.4424
 5121SOL    HW220256   0.217   5.202   1.258  1.2727  0.6244 -0.1500
 5121SOL    HW320257   0.097   5.296   1.254  0.6865 -0.1352 -0.5928
 5121SOL    MW420258   0.160   5.251   1.213  0.8505 -0.8870  0.6312
 5122SOL     OW20259   3.905   4.816   5.690 -0.2362  0.3743 -0.0922
 5122SOL    HW220260   3.841   4.882   5.661 -1.2241 -0.1060  0.9511
 5122SOL    HW320261   3.983   4.867   5.710 -0.5729  1.0866 -0.5389
 5122SOL    MW420262   3.907   4.832   5.689 -0.2731 -0.1502  0.2874
 5123SOL     OW20263   1.595   0.962   3.616 -0.0050  0.2613  0.0460
 5123SOL    HW220264   1.581   0.999   3.528  1.7487 -2.4877 -1.5194
 5123SOL    HW320265   1.581   0.868   3.604  0.9135 -0.2562  2.6068
 5123SOL    MW420266   1.591   0.955   3.603  0.2208 -0.0949  0.5304
 5124SOL     OW20267   5.081   2.978   3.823  0.4357  0.1669  0.5618
 5124SOL    HW220268   5.135   2.940   3.753 -1.5662 -0.3788 -0.7713
 5124SOL    HW320269   4.997   2.998   3.780 -0.3631  1.1677  2.4964
 5124SOL    MW420270   5.077   2.975   3.808 -1.1873  0.5426  0.3543
 5125SOL     OW20271   5.225   3.061   4.057  0.2789  0.8269  0.5421
 5125SOL    HW220272   5.178   3.036   3.978  1.8455 -0.6857  0.0343
 5125SOL    HW320273   5.183   3.143   4.085 -2.4268 -0.2544 -0.0059
 5125SOL    MW420274   5.213   3.069   4.051 -0.1984 -0.3421  0.0476
 5126SOL     OW20275   2.469   0.993   4.851  0.0302  0.2730 -0.0909
 5126SOL    HW220276   2.416   0.918   4.825  1.0054 -0.1726 -0.8748
 5126SOL    HW320277   2.552   0.980   4.805  0.7503  1.0416  0.9485
 5126SOL    MW420278   2.473   0.981   4.842 -0.3939  0.0979  0.4054
 5127SOL     OW20279   4.696   4.773   0.945 -0.4204  0.0285  0.4969
 5127SOL    HW220280   4.650   4.843   0.897 -0.6262 -0.6163 -0.2793
 5127SOL    HW320281   4.769   4.817   0.987  0.6318  0.4334 -1.5888
 5127SOL    MW420282   4.699   4.788   0.944 -0.3116 -0.4517  0.0583
 5128SOL     OW20283   6.405   1.255   1.849  0.1172 -0.2508 -0.3713
 5128SOL    HW220284   6.351   1.184   1.885  1.3353 -1.1518 -0.2358
 5128SOL    HW320285   6.345   1.329   1.839 -1.4114 -1.5466 -1.3357
 5128SOL    MW420286   6.390   1.255   1.852 -0.1942  0.5951  0.0337
 5129SOL     OW20287   4.352   2.150   3.275  0.0134  0.1418 -0.1547
 5129SOL    HW220288   4.371   2.225   3.331 -0.1917  0.4818 -0.5251
 5129SOL    HW320289   4.365   2.183   3.186  2.2424 -0.9389 -0.2737
 5129SOL    MW420290   4.356   2.164   3.271 -0.5443  0.6165 -0.4618
 5130SOL     OW20291   3.043   1.685   6.145 -0.2605  0.2084  0.2404
 5130SOL    HW220292   3.048   1.625   6.219  0.4695  0.0375  0.0513
 5130SOL    HW320293   3.004   1.633   6.074 -1.0526  0.3995  0.5174
 5130SOL    MW420294   3.038   1.670   6.146 -0.1149  0.0256  0.6928
 5131SOL     OW20295   3.202   5.507   2.193  0.3529  0.0515  0.2423
 5131SOL    HW220296   3.193   5.574   2.260  0.6617 -0.5300  0.8901
 5131SOL    HW320297   3.146   5.435   2.223 -0.4969  0.2614 -0.7814
 5131SOL    MW420298   3.194   5.506   2.206 -0.0109  0.0746 -0.5137
 5132SOL     OW20299   5.740   0.798   4.304  0.1025  0.6195  0.6241
 5132SOL    HW220300   5.765   0.890   4.299  0.1396  0.6123  0.6739
 5132SOL    HW320301   5.667   0.796   4.365 -1.2904  0.8978 -0.9518
 5132SOL    MW420302   5.734   0.810   4.311  0.3983  0.2084  0.3595
 5133SOL     OW20303   6.276   2.437   5.019 -0.0008  0.2562 -0.6481
 5133SOL    HW220304   6.190   2.475   4.998 -0.7774 -0.6991  0.6682
 5133SOL    HW320305   6.296   2.471   5.107  0.5364 -0.2764 -0.5611
 5133SOL    MW420306   6.267   2.447   5.028  0.6180 -0.4875  0.5756
 5134SOL     OW20307   2.095   2.278   5.725 -0.3961 -0.7549 -0.3220
 5134SOL    HW220308   2.105   2.229   5.643 -1.9536 -0.7899 -0.5341
 5134SOL    HW320309   2.067   2.365   5.697 -2.5608 -1.2222  0.1604
 5134SOL    MW420310   2.092   2.283   5.710 -0.4747  0.1587 -0.3176
 5135SOL     OW20311   2.188   1.268   0.249 -0.4979  0.4718 -0.1994
 5135SOL    HW220312   2.254   1.275   0.318 -2.1281  0.1271  1.4458
 5135SOL    HW320313   2.183   1.175   0.229 -1.3673  0.3372  0.5937
 5135SOL    MW420314   2.196   1.257   0.255 -0.0739 -0.3038  0.6539
 5136SOL     OW20315   6.264   1.024   1.262 -0.1193 -0.0352  0.0269
 5136SOL    HW220316   6.268   0.976   1.345 -0.6167 -1.9590 -0.9925
 5136SOL    HW320317   6.187   1.081   1.271 -1.2893 -1.5738  0.2662
 5136SOL    MW420318   6.254   1.025   1.274 -0.3372  0.7309 -0.4165
 5137SOL     OW20319   0.914   5.474   3.483 -1.1934 -0.3712 -0.6666
 5137SOL    HW220320   0.822   5.492   3.500 -0.6287  2.0199  0.2066
 5137SOL    HW320321   0.933   5.519   3.400 -0.6244 -0.0946 -0.3975
 5137SOL    MW420322   0.905   5.482   3.474  0.1951  0.0651  0.5077
 5138SOL     OW20323   1.808   4.856   4.759  0.4180 -0.1066 -0.0446
 5138SOL    HW220324   1.800   4.951   4.752  0.5074  0.0896  2.0073
 5138SOL    HW320325   1.881   4.834   4.701  1.5660  1.3304  0.7961
 5138SOL    MW420326   1.817   4.865   4.750 -0.6750  0.4180  0.0372
 5139SOL     OW20327   4.180   4.953   5.759  0.4499  0.3306  0.0677
 5139SOL    HW220328   4.249   4.899   5.720  0.8190  1.2605 -0.6006
 5139SOL    HW320329   4.225   5.033   5.787 -0.4035  1.1031 -0.6918
 5139SOL    MW420330   4.195   4.957   5.757  0.4011  0.1350  0.3727
 5140SOL     OW20331   4.948   6.390   4.798 -0.0510 -0.2217  0.4793
 5140SOL    HW220332   4.917   6.433   4.878 -1.8429 -0.5329 -0.0026
 5140SOL    HW320333   4.958   6.298   4.822 -0.1569 -0.2370  0.4667
 5140SOL    MW420334   4.945   6.384   4.812 -0.0153  0.0167  0.4679
 5141SOL     OW20335   4.007   0.444   5.019 -0.5110 -0.1554  0.1490
 5141SOL    HW220336   4.057   0.465   5.098 -0.0391  1.3062 -0.4832
 5141SOL    HW320337   4.071   0.405   4.960 -0.6119 -0.2784  0.1222
 5141SOL    MW420338   4.022   0.442   5.021  0.1874 -0.4336 -0.2635
 5142SOL     OW20339   0.133   0.379   6.134  0.0468 -0.5646  0.3864
 5142SOL    HW220340   0.092   0.395   6.048  2.5720 -1.5587 -1.1004
 5142SOL    HW320341   0.208   0.438   6.136  0.0021 -0.5226  1.9756
 5142SOL    MW420342   0.137   0.389   6.123 -0.2122 -0.0590  0.0893
 5143SOL     OW20343   5.530   1.528   6.397 -0.0094  0.3968  0.0944
 5143SOL    HW220344   5.437   1.511   6.413 -0.2664  2.1052  0.6273
 5143SOL    HW320345   5.575   1.490   6.473 -0.3760  0.5080  0.3668
 5143SOL    MW420346   5.524   1.520   6.409 -0.6548 -0.2921  0.2499
 5144SOL     OW20347   5.830   6.403   4.009 -0.6417 -0.2584  0.2516
 5144SOL    HW220348   5.750   6.448   4.038 -2.2077 -1.9206 -1.2626
 5144SOL    HW320349   5.829   6.320   4.057  0.5000 -0.0784  0.6122
 5144SOL    MW420350   5.819   6.398   4.019  0.4013  0.2037 -0.2684
 5145SOL     OW20351   4.731   3.460   6.370 -0.3272 -0.0896 -0.5373
 5145SOL    HW220352   4.751   3.527   6.436  0.6007  0.5749 -1.4540
 5145SOL    HW320353   4.752   3.377   6.412  0.5803  0.3496 -0.0850
 5145SOL    MW420354   4.737   3.458   6.384  0.4969 -0.1851  0.9126
 5146SOL     OW20355   1.214   0.864   3.034  0.4945 -0.1578  0.4657
 5146SOL    HW220356   1.192   0.859   2.941  1.2385  0.2981  0.2593
 5146SOL    HW320357   1.217   0.958   3.053  0.8425 -0.2383  0.8231
 5146SOL    MW420358   1.212   0.876   3.024 -0.1310  0.0128  0.0456
 5147SOL     OW20359   4.494   4.460   3.023 -0.1820  0.4585 -0.8730
 5147SOL    HW220360   4.495   4.541   3.073 -0.6974 -0.1569  0.1542
 5147SOL    HW320361   4.547   4.479   2.946 -1.8110  2.3760 -1.6242
 5147SOL    MW420362   4.501   4.473   3.019 -0.0303 -0.3614 -0.0862
 5148SOL     OW20363   2.626   2.019   0.744  0.1371 -0.1929 -0.6294
 5148SOL    HW220364   2.611   1.997   0.652 -1.8652  0.0783 -0.4204
 5148SOL    HW320365   2.564   1.964   0.792 -1.2150  1.9912  0.2784
 5148SOL    MW420366   2.616   2.009   0.738 -0.5330  0.1178 -0.0662
 5149SOL     OW20367   5.247   5.396   1.065 -0.3393 -0.3224  0.7714
 5149SOL    HW220368   5.328   5.443   1.083  0.0475  0.0323 -1.6715
 5149SOL    HW320369   5.261   5.308   1.101  0.4428  0.2134  1.8370
 5149SOL    MW420370   5.259   5.390   1.072 -0.5117 -0.0735  0.6701
 5150SOL     OW20371   3.188   1.667   2.653 -0.3486 -0.3086  0.0069
 5150SOL    HW220372   3.278   1.681   2.624 -0.0477 -2.8788 -0.5732
 5150SOL    HW320373   3.173   1.736   2.717  1.7866  0.6095 -0.3677
 5150SOL    MW420374   3.198   1.678   2.657  0.0585  0.2616  0.1410
 5151SOL     OW20375   3.550   2.118   1.541 -0.2038  0.1932 -0.0869
 5151SOL    HW220376   3.625   2.147   1.593 -0.1614  0.7274 -0.4356
 5151SOL    HW320377   3.505   2.200   1.518 -0.0235 -0.0066 -1.1930
 5151SOL    MW420378   3.554   2.133   1.545  0.6786 -0.3637 -0.7492
 5152SOL     OW20379   2.414   5.970   2.984  0.2284  0.0224  0.7282
 5152SOL    HW220380   2.395   6.057   2.949 -2.2367 -0.7210  0.0174
 5152SOL    HW320381   2.369   5.910   2.925  1.5351 -1.7416  1.4408
 5152SOL    MW420382   2.406   5.973   2.972 -0.0748  0.2519 -0.4159
 5153SOL     OW20383   6.188   3.853   2.668  0.3138 -0.2492 -0.0597
 5153SOL    HW220384   6.112   3.804   2.701  0.1177 -0.6255 -1.0575
 5153SOL    HW320385   6.257   3.788   2.659  0.5355 -0.0418  0.1290
 5153SOL    MW420386   6.187   3.838   2.671  0.3686  0.1244  0.0504
 5154SOL     OW20387   1.625   2.682   3.075  0.1834 -0.0314  0.4032
 5154SOL    HW220388   1.639   2.770   3.108  0.6443  0.2804 -0.5844
 5154SOL    HW320389   1.701   2.664   3.020  0.0677 -1.0246  0.5490
 5154SOL    MW420390   1.637   2.691   3.072 -0.4642 -0.2894 -0.5775
 5155SOL     OW20391   5.307   3.615   0.116  0.1624  0.3163  0.4732
 5155SOL    HW220392   5.216   3.586   0.125  0.8068 -1.3456  2.1785
 5155SOL    HW320393   5.350   3.544   0.068  0.2043  2.0318 -2.2599
 5155SOL    MW420394   5.300   3.602   0.111  0.0320 -0.4010  0.2862
 5156SOL     OW20395   5.586   3.477   3.725 -0.0091  0.1323 -0.3272
 5156SOL    HW220396   5.624   3.558   3.760 -0.0423  0.1110 -0.2429
 5156SOL    HW320397   5.658   3.437   3.675 -0.0547  0.3214 -0.5489
 5156SOL    MW420398   5.601   3.483   3.723  0.1173 -0.0411  0.1757
 5157SOL     OW20399   1.803   3.981   1.879  0.0351 -0.5494 -0.3915
 5157SOL    HW220400   1.760   3.902   1.912  1.2965 -0.7591  0.8604
 5157SOL    HW320401   1.768   4.051   1.933  1.8661 -0.8498  1.3137
 5157SOL    MW420402   1.793   3.979   1.891  0.3299  0.5100 -0.1328
 5158SOL     OW20403   3.254   3.424   6.056  0.1200 -0.7841  0.0536
 5158SOL    HW220404   3.283   3.481   5.985  0.3083 -0.9998 -0.0451
 5158SOL    HW320405   3.193   3.363   6.015  0.0559 -0.7652  0.1219
 5158SOL    MW420406   3.250   3.423   6.041  0.1678  0.2274 -0.3048
 5159SOL     OW20407   0.456   2.025   2.776  0.4090 -0.1808 -0.5525
 5159SOL    HW220408   0.370   2.019   2.817  0.6706  2.3612  0.5395
 5159SOL    HW320409   0.441   2.003   2.684 -0.9656 -1.9084  0.0302
 5159SOL    MW420410   0.443   2.021   2.769  0.1903 -0.3590 -0.0884
 5160SOL     OW20411   6.359   5.781   2.908  0.2410  0.8046 -0.1609
 5160SOL    HW220412   6.357   5.693   2.870 -1.4956  0.8508 -0.2804
 5160SOL    HW320413   6.346   5.839   2.833 -0.5818  1.0410  0.1572
 5160SOL    MW420414   6.357   5.777   2.893 -0.4231  0.1944  0.5726
 5161SOL     OW20415   4.455   1.436   0.447  0.0932  0.4455 -0.2850
 5161SOL    HW220416   4.395   1.399   0.511  3.9829 -1.5182  2.6481
 5161SOL    HW320417   4.440   1.531   0.452 -2.7871  0.0559  0.0448
 5161SOL    MW420418   4.445   1.444   0.456 -0.2884 -0.2145  0.4170
 5162SOL     OW20419   1.916   1.882   4.779  0.2896  0.2809  0.3138
 5162SOL    HW220420   1.924   1.787   4.780 -1.2606  0.1003  2.2463
 5162SOL    HW320421   1.961   1.910   4.859  0.1156  1.1143  0.1281
 5162SOL    MW420422   1.923   1.873   4.790 -0.2481 -0.0223 -0.3681
 5163SOL     OW20423   0.466   5.757   6.180  0.8249  0.2634 -0.0590
 5163SOL    HW220424   0.511   5.809   6.247  0.0755  0.4460  0.3173
 5163SOL    HW320425   0.377   5.749   6.213  1.1661 -2.2201  0.4690
 5163SOL    MW420426   0.460   5.763   6.193 -0.2852 -0.3276  0.3841
 5164SOL     OW20427   4.626   5.990   0.982  0.3717 -0.0729 -0.0822
 5164SOL    HW220428   4.610   5.919   0.919 -0.3567 -0.1385  0.1676
 5164SOL    HW320429   4.610   6.070   0.932 -1.1349 -0.1375  0.2353
 5164SOL    MW420430   4.621   5.991   0.967  0.0675  0.4849 -0.3790
 5165SOL     OW20431   3.876   1.541   1.097  0.1276 -0.4358  0.1395
 5165SOL    HW220432   3.949   1.491   1.135  0.7705  0.9141  0.7503
 5165SOL    HW320433   3.870   1.509   1.007 -0.0682 -2.2275  0.7457
 5165SOL    MW420434   3.885   1.530   1.090 -0.5670  0.3860 -0.2846
 5166SOL     OW20435   6.436   1.204   5.821 -0.6381  0.0332 -0.0049
 5166SOL    HW220436   6.431   1.111   5.846 -0.1809 -0.0860 -0.3432
 5166SOL    HW320437   6.439   1.250   5.904  1.1141 -0.3773  0.2108
 5166SOL    MW420438   6.436   1.198   5.835  0.3230  0.5905 -0.0626
 5167SOL     OW20439   5.374   4.108   4.349 -0.5286 -0.1541 -0.1713
 5167SOL    HW220440   5.446   4.045   4.345  0.6874  1.1764 -0.0184
 5167SOL    HW320441   5.318   4.075   4.420  0.3582 -0.7867  0.2612
 5167SOL    MW420442   5.377   4.095   4.358 -0.0720 -0.1059 -0.4214
 5168SOL     OW20443   4.166   1.443   1.413 -0.1419 -0.3263 -0.5650
 5168SOL    HW220444   4.253   1.454   1.452 -0.9819  2.2959  0.8826
 5168SOL    HW320445   4.112   1.413   1.486 -0.9358  0.6824 -0.7148
 5168SOL    MW420446   4.171   1.441   1.428 -0.2690  0.4086  0.3737
 5169SOL     OW20447   0.095   4.173   0.831 -0.1967 -0.4636 -0.1097
 5169SOL    HW220448   0.050   4.218   0.759 -1.7689 -1.6731  0.0720
 5169SOL    HW320449   0.137   4.244   0.880  1.1525  0.3617 -2.3335
 5169SOL    MW420450   0.095   4.189   0.828  0.4824 -0.8406  0.1212
 5170SOL     OW20451   1.668   0.411   2.958 -0.1118 -0.0300 -0.0924
 5170SOL    HW220452   1.703   0.492   2.921 -0.4999  0.2154  0.0746
 5170SOL    HW320453   1.732   0.344   2.933  1.8107  0.7527  2.2699
 5170SOL    MW420454   1.681   0.413   2.950 -0.2722  0.2282 -0.3771
 5171SOL     OW20455   6.345   4.514   5.776 -0.4675  0.0739  0.2780
 5171SOL    HW220456   6.365   4.425   5.748  0.2201  0.9612 -2.3491
 5171SOL    HW320457   6.424   4.543   5.822 -0.5858 -0.5463  0.8861
 5171SOL    MW420458   6.358   4.506   5.779 -0.6685 -0.1693  0.1561
 5172SOL     OW20459   6.310   0.391   6.265 -0.2825  0.5155 -0.1610
 5172SOL    HW220460   6.296   0.476   6.306 -0.6057  0.3601  0.0556
 5172SOL    HW320461   6.393   0.400   6.218 -1.9056  2.0546 -2.9932
 5172SOL    MW420462   6.320   0.404   6.264  0.7013  0.0414 -0.3395
 5173SOL     OW20463   3.981   1.302   3.487 -0.2127 -0.3393 -0.3300
 5173SOL    HW220464   3.891   1.330   3.472 -0.8346 -2.2073 -0.4143
 5173SOL    HW320465   3.974   1.208   3.503  1.5212 -0.2075  1.6329
 5173SOL    MW420466   3.968   1.293   3.487 -0.6344  0.5889  0.3526
 5174SOL     OW20467   4.715   0.654   2.510  0.9897  0.5895  0.2635
 5174SOL    HW220468   4.785   0.634   2.572  1.5445 -0.1322 -0.5802
 5174SOL    HW320469   4.726   0.591   2.439 -0.3621  0.6311 -0.0172
 5174SOL    MW420470   4.725   0.643   2.509 -0.0263  0.2881 -0.7895
 5175SOL     OW20471   2.612   5.041   6.281 -0.3918  0.9258  0.3187
 5175SOL    HW220472   2.642   5.131   6.271 -0.9111  0.9333 -1.5117
 5175SOL    HW320473   2.595   5.011   6.192 -2.2036 -0.3078  1.0212
 5175SOL    MW420474   2.614   5.049   6.268  1.1094 -0.5850  0.0635
 5176SOL     OW20475   4.212   5.217   4.878  0.4877  0.3671  0.1733
 5176SOL    HW220476   4.180   5.199   4.967  0.0220  1.8109  0.3195
 5176SOL    HW320477   4.156   5.165   4.821 -1.2840  1.8038  0.5221
 5176SOL    MW420478   4.200   5.208   4.882  0.3042 -0.4843 -0.0719
 5177SOL     OW20479   3.152   1.164   5.585 -0.6277  0.1351 -0.0035
 5177SOL    HW220480   3.218   1.132   5.646  0.3642  1.5285 -0.2886
 5177SOL    HW320481   3.143   1.257   5.606 -1.3267  0.3198 -1.0329
 5177SOL    MW420482   3.160   1.172   5.596  0.0183 -0.4009  0.5246
 5178SOL     OW20483   1.506   2.153   1.602 -0.4984  0.2755 -0.3219
 5178SOL    HW220484   1.588   2.192   1.574 -1.2293  2.4882  0.3912
 5178SOL    HW320485   1.460   2.224   1.648 -2.4568 -1.1129  0.0014
 5178SOL    MW420486   1.511   2.168   1.605  0.3242  0.0886 -0.0890
 5179SOL     OW20487   1.937   6.048   0.834  0.0755 -0.3256 -0.7476
 5179SOL    HW220488   1.922   5.965   0.879 -2.3062 -0.6747 -2.0284
 5179SOL    HW320489   1.918   6.115   0.901 -1.4784 -0.8338 -0.6344
 5179SOL    MW420490   1.932   6.046   0.849  0.6103 -0.7954  0.1293
 5180SOL     OW20491   4.900   5.430   5.785 -0.1517  0.1968 -0.8523
 5180SOL    HW220492   4.982   5.382   5.772  0.4903  1.6681 -2.7966
 5180SOL    HW320493   4.921   5.492   5.855 -0.8689 -1.9303  1.3893
 5180SOL    MW420494   4.914   5.432   5.793  0.0532 -0.5780 -0.1088
 5181SOL     OW20495   0.580   5.248   1.439 -0.9381  0.1224  0.2279
 5181SOL    HW220496   0.617   5.265   1.352  3.2117  2.5748  2.1872
 5181SOL    HW320497   0.602   5.156   1.457 -0.3415  0.0868 -0.6298
 5181SOL    MW420498   0.588   5.238   1.430 -0.2232  0.1765 -0.2306
 5182SOL     OW20499   1.961   0.263   0.866  0.4820  0.1066  0.3640
 5182SOL    HW220500   2.016   0.185   0.875 -0.3782 -0.5475  0.0048
 5182SOL    HW320501   1.948   0.294   0.956  0.9588 -0.0584  0.4945
 5182SOL    MW420502   1.967   0.257   0.879  0.8182 -0.7155  0.0316
 5183SOL     OW20503   1.926   1.193   3.792 -0.2693 -0.2012 -0.0769
 5183SOL    HW220504   1.940   1.191   3.887 -1.2399  3.2893  0.2544
 5183SOL    HW320505   2.002   1.240   3.758  0.0723 -1.4312 -1.0852
 5183SOL    MW420506   1.938   1.199   3.800  0.0363  0.5274  0.1742
 5184SOL     OW20507   3.697   6.133   3.319 -0.1063  0.5160  0.0392
 5184SOL    HW220508   3.644   6.212   3.327  0.0546  0.5392  0.9988
 5184SOL    HW320509   3.712   6.123   3.225 -1.4616  0.7331 -0.2215
 5184SOL    MW420510   3.692   6.142   3.307  0.2249 -0.1483  0.7840
 5185SOL     OW20511   3.095   2.703   5.472  0.1372 -0.1269 -0.2863
 5185SOL    HW220512   3.161   2.766   5.443  1.0688 -0.9705 -0.0416
 5185SOL    HW320513   3.026   2.708   5.405  0.0721  1.3206 -0.1405
 5185SOL    MW420514   3.095   2.712   5.459  0.6751  0.0231  0.0418
 5186SOL     OW20515   0.687   0.259   2.374 -0.3952  0.1901  0.3465
 5186SOL    HW220516   0.716   0.188   2.431  0.7687 -1.3382 -1.9977
 5186SOL    HW320517   0.666   0.331   2.434  1.3315 -1.0957  2.6525
 5186SOL    MW420518   0.688   0.259   2.389  0.0726 -0.0380 -0.0952
 5187SOL     OW20519   0.238   1.682   4.215 -0.4483 -0.5570 -0.3931
 5187SOL    HW220520   0.283   1.693   4.131  0.3424  0.6762  0.1679
 5187SOL    HW320521   0.296   1.627   4.267 -0.1455  0.0534 -0.0810
 5187SOL    MW420522   0.251   1.676   4.211 -0.4233 -0.7745 -0.2741
 5188SOL     OW20523   2.649   4.095   5.494 -0.0656 -0.0573 -0.7245
 5188SOL    HW220524   2.704   4.136   5.561 -1.4255 -0.6882  0.8387
 5188SOL    HW320525   2.704   4.028   5.455  1.0773  0.9872 -0.9634
 5188SOL    MW420526   2.663   4.092   5.498  0.6656 -0.1731  0.0369
 5189SOL     OW20527   1.689   1.263   4.584  0.1691  0.4028 -0.5681
 5189SOL    HW220528   1.606   1.310   4.597 -0.6114 -0.4987 -1.9755
 5189SOL    HW320529   1.722   1.248   4.672 -2.9251 -2.2193  0.3549
 5189SOL    MW420530   1.682   1.267   4.597 -0.4698 -0.1657  0.5396
 5190SOL     OW20531   3.567   5.331   3.751  0.1356 -0.4143 -0.1775
 5190SOL    HW220532   3.599   5.409   3.706  0.0016  0.6692  1.5386
 5190SOL    HW320533   3.488   5.360   3.797  0.2364 -1.4804  0.7011
 5190SOL    MW420534   3.561   5.345   3.751  0.2728 -0.7916 -0.1211
 5191SOL     OW20535   2.948   0.670   1.362  0.1466 -0.6698  0.2996
 5191SOL    HW220536   2.927   0.657   1.270  1.9261 -0.6399 -0.1478
 5191SOL    HW320537   2.900   0.601   1.408 -2.3399  0.4911 -0.3812
 5191SOL    MW420538   2.939   0.659   1.356  0.6674 -0.3056  0.2340
 5192SOL     OW20539   3.558   4.265   0.485  0.9685 -0.4109 -0.5016
 5192SOL    HW220540   3.537   4.353   0.455  1.0404 -0.0817  0.3890
 5192SOL    HW320541   3.485   4.211   0.453  0.1263  0.2423  0.2426
 5192SOL    MW420542   3.545   4.269   0.477 -0.0553 -0.2438 -0.1276
 5193SOL     OW20543   3.812   0.730   0.637  0.0156 -0.4152 -0.4673
 5193SOL    HW220544   3.837   0.799   0.575 -0.5299  0.5269  0.3335
 5193SOL    HW320545   3.763   0.776   0.705 -0.5826 -1.6434 -0.0442
 5193SOL    MW420546   3.809   0.746   0.637 -0.0511  0.2975  0.5914
 5194SOL     OW20547   1.518   5.610   5.008  0.0732 -0.5194  0.5216
 5194SOL    HW220548   1.523   5.687   5.064  1.6921  1.1774 -1.7396
 5194SOL    HW320549   1.558   5.540   5.059  1.4930  0.9428  1.5359
 5194SOL    MW420550   1.524   5.611   5.022 -0.0693 -0.3283  0.3417
 5195SOL     OW20551   3.100   2.902   3.210  0.3116  0.2077  0.1482
 5195SOL    HW220552   3.060   2.823   3.246  0.3060  0.5251  0.8584
 5195SOL    HW320553   3.027   2.956   3.182  0.2224  0.7682  1.4040
 5195SOL    MW420554   3.085   2.899   3.211 -0.3517  0.2098  0.0240
 5196SOL     OW20555   3.420   5.304   5.237 -0.1609 -0.0238 -0.1640
 5196SOL    HW220556   3.330   5.275   5.246 -0.1235 -0.5908 -1.4344
 5196SOL    HW320557   3.415   5.400   5.243 -0.6661 -0.1080  1.0411
 5196SOL    MW420558   3.408   5.313   5.239  0.2978 -0.0488 -0.7259
 5197SOL     OW20559   6.370   5.427   5.227 -0.4626  0.4491 -0.2665
 5197SOL    HW220560   6.361   5.333   5.216  1.3381  0.2785 -0.5859
 5197SOL    HW320561   6.377   5.440   5.322 -0.9734  0.2989 -0.2061
 5197SOL    MW420562   6.369   5.417   5.238  0.5541 -0.4396  0.2041
 5198SOL     OW20563   6.383   2.448   3.611  0.7349 -0.2572  0.0950
 5198SOL    HW220564   6.402   2.504   3.687 -0.9120  0.1002  0.2782
 5198SOL    HW320565   6.304   2.485   3.573  0.2866 -1.7473 -0.4954
 5198SOL    MW420566   6.375   2.460   3.616  0.0751  0.3529  0.4775
 5199SOL     OW20567   3.938   5.739   5.559  0.8813  0.2963  0.2287
 5199SOL    HW220568   3.960   5.832   5.556  0.8279  0.3452  0.9739
 5199SOL    HW320569   3.866   5.734   5.622  0.0221 -0.0941 -0.7522
 5199SOL    MW420570   3.931   5.750   5.567  0.3063 -0.2269  0.5344
 5200SOL     OW20571   1.255   3.675   5.059 -0.4299  0.0286  0.2492
 5200SOL    HW220572   1.347   3.698   5.045 -0.3296 -0.8517 -0.6250
 5200SOL    HW320573   1.207   3.755   5.038  0.0769  0.2176 -0.2140
 5200SOL    MW420574   1.261   3.689   5.055 -0.1712  0.1899  0.2917
 5201SOL     OW20575   5.383   1.866   1.279 -0.4371  0.7080  0.4889
 5201SOL    HW220576   5.416   1.944   1.323  2.8543 -0.3813  0.2093
 5201SOL    HW320577   5.452   1.801   1.291 -1.8449 -1.3113 -1.6364
 5201SOL    MW420578   5.396   1.868   1.286  0.4768  0.2815 -0.6007
 5202SOL     OW20579   1.081   5.933   5.992  0.0187  0.7671 -0.3801
 5202SOL    HW220580   1.111   5.842   5.990 -0.9996  0.4297 -1.7406
 5202SOL    HW320581   1.147   5.979   6.044 -0.1140 -0.9699  1.4520
 5202SOL    MW420582   1.093   5.927   5.999 -0.5618 -0.2549 -0.2468
 5203SOL     OW20583   4.982   6.202   1.979 -0.1172 -0.2394  0.0631
 5203SOL    HW220584   4.914   6.252   1.935 -0.3445 -1.0138 -0.4859
 5203SOL    HW320585   4.956   6.202   2.071  0.9981  2.4112  0.4511
 5203SOL    MW420586   4.970   6.208   1.985  0.1774 -0.0415 -0.5208
 5204SOL     OW20587   3.480   3.063   4.597 -0.2116  0.3487 -0.7242
 5204SOL    HW220588   3.473   2.978   4.552  3.9544 -1.7477  1.9012
 5204SOL    HW320589   3.547   3.110   4.548  0.8960  0.0446  0.4414
 5204SOL    MW420590   3.488   3.058   4.585 -0.1985  0.2930 -0.7547
 5205SOL     OW20591   4.363   6.200   2.691 -0.4949 -0.5321 -0.1557
 5205SOL    HW220592   4.275   6.180   2.659 -0.3498  0.7373 -1.4523
 5205SOL    HW320593   4.396   6.267   2.630  1.6794 -1.5745 -0.2343
 5205SOL    MW420594   4.356   6.206   2.678  0.7420  0.2192 -0.3742
 5206SOL     OW20595   6.091   5.405   5.941 -0.0747  0.0014  0.3495
 5206SOL    HW220596   6.125   5.382   6.027 -0.6480 -0.0499  0.5660
 5206SOL    HW320597   6.102   5.326   5.889 -0.1609 -0.1149  0.5088
 5206SOL    MW420598   6.097   5.392   5.945 -0.1257  0.3204  0.3099
 5207SOL     OW20599   4.259   6.361   3.504  0.1613  0.0753  0.4449
 5207SOL    HW220600   4.178   6.362   3.454 -0.3535 -0.0024  1.2621
 5207SOL    HW320601   4.327   6.385   3.441 -0.6806  1.5545  0.0678
 5207SOL    MW420602   4.258   6.364   3.489  0.8091 -0.7859  0.0049
 5208SOL     OW20603   2.591   5.715   5.137 -0.3954 -0.3377 -0.5326
 5208SOL    HW220604   2.503   5.701   5.172 -0.1415 -0.4536  0.0793
 5208SOL    HW320605   2.649   5.694   5.210  0.2011 -1.4663 -1.3015
 5208SOL    MW420606   2.587   5.711   5.151 -0.1533  0.2485  0.3281
 5209SOL     OW20607   0.197   4.396   0.968 -0.6407  0.1209  0.1294
 5209SOL    HW220608   0.122   4.392   1.027 -0.5985 -0.3767  0.1512
 5209SOL    HW320609   0.272   4.414   1.025 -0.8805  1.7408 -0.0111
 5209SOL    MW420610   0.197   4.398   0.983 -0.0885  0.4372 -0.2649
 5210SOL     OW20611   4.605   3.065   4.883 -0.4583 -0.3430  0.3379
 5210SOL    HW220612   4.661   3.139   4.861 -2.0156  1.2391  1.3833
 5210SOL    HW320613   4.658   3.009   4.939  0.7415 -0.0101 -0.4461
 5210SOL    MW420614   4.619   3.067   4.888 -0.1345 -0.3846  0.5008
 5211SOL     OW20615   0.968   0.457   2.574 -0.0345  0.5464 -0.2594
 5211SOL    HW220616   1.037   0.462   2.640 -0.0776 -0.9278 -0.0729
 5211SOL    HW320617   1.006   0.496   2.495  1.3061 -0.9485 -0.3898
 5211SOL    MW420618   0.982   0.463   2.572 -0.2236 -0.0459 -0.6239
 5212SOL     OW20619   4.173   0.892   5.507 -0.1547 -0.3035 -0.1856
 5212SOL    HW220620   4.138   0.903   5.419  0.1053  0.9259 -0.1634
 5212SOL    HW320621   4.151   0.974   5.551  0.4670 -0.5622  0.6247
 5212SOL    MW420622   4.166   0.904   5.501 -0.8885  0.2051  0.4155
 5213SOL     OW20623   2.361   1.279   2.615 -0.5872  0.0793  0.1334
 5213SOL    HW220624   2.389   1.370   2.618  3.0816 -0.9044  0.1216
 5213SOL    HW320625   2.356   1.259   2.521  2.5312 -0.6554  0.0204
 5213SOL    MW420626   2.364   1.288   2.603 -0.4588 -0.4542 -0.4348
 5214SOL     OW20627   2.438   3.080   1.879 -0.3473 -0.5814 -0.1025
 5214SOL    HW220628   2.344   3.097   1.894 -0.5769 -1.6582 -0.2818
 5214SOL    HW320629   2.445   3.066   1.785 -0.1991 -1.6309  0.0539
 5214SOL    MW420630   2.426   3.081   1.869  0.0624 -0.3376 -0.3743
 5215SOL     OW20631   5.404   4.919   1.975  0.4231 -0.2181 -0.6265
 5215SOL    HW220632   5.423   4.946   1.885 -0.2800 -1.0371 -1.0404
 5215SOL    HW320633   5.339   4.849   1.966 -0.2448  0.2084  0.5538
 5215SOL    MW420634   5.398   4.913   1.962  0.6314  0.6764 -0.0921
 5216SOL     OW20635   4.213   3.992   5.037  0.0709  0.2948  0.3074
 5216SOL    HW220636   4.244   4.077   5.066  0.9323 -0.3787  1.4313
 5216SOL    HW320637   4.123   3.986   5.070  0.0519  0.7200  0.3290
 5216SOL    MW420638   4.205   4.002   5.045  0.1516 -0.1409  0.2109
 5217SOL     OW20639   5.103   0.339   5.246 -0.3220  0.2005 -0.3832
 5217SOL    HW220640   5.030   0.323   5.306 -0.8074  1.3720 -0.6285
 5217SOL    HW320641   5.114   0.434   5.246  1.1034  0.0610 -0.4919
 5217SOL    MW420642   5.095   0.349   5.254 -0.2989 -0.0010 -0.2321
 5218SOL     OW20643   3.034   2.651   5.768  0.2154 -0.6827 -0.2737
 5218SOL    HW220644   3.042   2.672   5.675  0.2079 -1.7930 -0.5386
 5218SOL    HW320645   3.058   2.732   5.813 -0.9265  0.2344 -1.2395
 5218SOL    MW420646   3.038   2.665   5.762 -0.2233 -0.2995 -0.2432
 5219SOL     OW20647   5.193   3.138   5.228 -0.0254  0.1145  0.3560
 5219SOL    HW220648   5.223   3.203   5.292  0.3026  1.0635 -0.7355
 5219SOL    HW320649   5.104   3.116   5.256 -0.7796  2.2710 -0.1644
 5219SOL    MW420650   5.185   3.143   5.240 -0.4457  0.0035 -0.0555
 5220SOL     OW20651   2.958   3.634   6.366 -0.2575 -0.8305  0.0833
 5220SOL    HW220652   3.030   3.581   6.401  0.0234 -0.5041  0.0002
 5220SOL    HW320653   2.903   3.653   6.442  0.1948 -0.3733  0.3052
 5220SOL    MW420654   2.961   3.630   6.380 -0.1087 -0.2423 -0.0447
 5221SOL     OW20655   3.600   6.386   0.506  0.1993 -0.3781  0.1055
 5221SOL    HW220656   3.664   6.336   0.556 -0.4264 -1.5702 -0.2487
 5221SOL    HW320657   3.554   6.439   0.571  1.3386  0.2779  0.3956
 5221SOL    MW420658   3.602   6.386   0.521 -0.0396  0.0273  0.7174
 5222SOL     OW20659   5.457   0.722   4.397  0.2266 -0.2137 -0.3990
 5222SOL    HW220660   5.427   0.812   4.382  0.5163 -0.1374 -0.5252
 5222SOL    HW320661   5.397   0.688   4.464  0.0330  0.0285 -0.4462
 5222SOL    MW420662   5.445   0.730   4.404 -0.0527 -0.4803 -0.9436
 5223SOL     OW20663   1.534   2.237   4.741  0.5939 -0.2359 -0.2315
 5223SOL    HW220664   1.584   2.252   4.821  0.8708  1.9982 -0.7546
 5223SOL    HW320665   1.449   2.205   4.771  0.5719  0.8958  0.9970
 5223SOL    MW420666   1.529   2.235   4.755 -0.1128 -0.1319 -0.0837
 5224SOL     OW20667   5.913   0.985   4.572 -0.5111 -0.2410  0.1314
 5224SOL    HW220668   5.907   0.968   4.666 -1.6625  0.1193  0.1374
 5224SOL    HW320669   5.962   0.910   4.537  0.8592  0.1369  1.1381
 5224SOL    MW420670   5.919   0.973   4.580 -0.5887  0.4702 -0.5395
 5225SOL     OW20671   5.902   2.236   5.960  0.3159 -0.1063  0.2401
 5225SOL    HW220672   5.932   2.188   5.883 -0.2732 -1.9275  1.1012
 5225SOL    HW320673   5.983   2.270   5.999  0.8401 -1.0771  0.0321
 5225SOL    MW420674   5.917   2.235   5.955 -0.1763 -0.3842 -0.0033
 5226SOL     OW20675   2.153   1.588   0.784  0.0742 -0.3693  0.0021
 5226SOL    HW220676   2.176   1.496   0.796  1.5844 -0.1310 -0.7535
 5226SOL    HW320677   2.155   1.625   0.873  0.4029 -0.8570  0.2031
 5226SOL    MW420678   2.156   1.581   0.798 -0.0238  0.1967  0.5950
 5227SOL     OW20679   0.167   6.043   4.004  0.0346 -0.6599 -0.2465
 5227SOL    HW220680   0.095   6.032   4.066  1.3834 -0.4465  1.4314
 5227SOL    HW320681   0.131   6.096   3.934 -1.4507 -0.5839  0.5416
 5227SOL    MW420682   0.153   6.049   4.003 -0.0815 -0.2009 -0.6629
 5228SOL     OW20683   4.799   5.847   2.078  0.1291 -0.0214  0.1751
 5228SOL    HW220684   4.800   5.908   2.004  0.5347 -1.1442 -0.7851
 5228SOL    HW320685   4.888   5.814   2.083 -0.5056 -2.0713 -0.6964
 5228SOL    MW420686   4.811   5.850   2.069  0.2462  0.3463  0.2627
 5229SOL     OW20687   1.202   4.386   4.815  0.0530 -0.4035 -0.5465
 5229SOL    HW220688   1.242   4.318   4.762 -0.3359 -1.4110  0.4165
 5229SOL    HW320689   1.114   4.397   4.778 -0.0582 -0.7778 -0.3906
 5229SOL    MW420690   1.196   4.379   4.803  0.2345  0.8085 -0.1258
 5230SOL     OW20691   5.438   1.085   2.760 -0.0815  0.1139 -0.0652
 5230SOL    HW220692   5.500   1.016   2.738 -1.1592 -0.2467 -2.1788
 5230SOL    HW320693   5.386   1.049   2.832  0.4608 -0.5852 -0.0214
 5230SOL    MW420694   5.439   1.071   2.767  0.4050 -0.0857 -0.3765
 5231SOL     OW20695   5.104   6.418   6.165 -0.0741 -1.1067  0.5619
 5231SOL    HW220696   5.098   6.486   6.098  3.7788 -0.6907  0.4015
 5231SOL    HW320697   5.107   6.336   6.115 -1.9599 -1.2151  0.5839
 5231SOL    MW420698   5.104   6.416   6.149  0.3683 -0.3191 -0.4813
 5232SOL     OW20699   1.922   2.460   4.762 -0.4286  0.0406 -0.0907
 5232SOL    HW220700   1.863   2.534   4.775  0.4466  0.8350 -0.5376
 5232SOL    HW320701   1.881   2.408   4.693  0.0658  1.3319 -1.4062
 5232SOL    MW420702   1.909   2.463   4.755 -0.3614 -0.0749 -0.2405
 5233SOL     OW20703   3.708   0.573   5.123 -0.0675  0.2961  0.2804
 5233SOL    HW220704   3.731   0.502   5.063  0.4811 -0.3637  1.2489
 5233SOL    HW320705   3.790   0.620   5.138 -0.7361  2.2992 -1.7545
 5233SOL    MW420706   3.722   0.570   5.117 -0.0887 -0.3264  0.5146
 5234SOL     OW20707   4.388   5.777   2.222  0.2029  0.3341  0.0647
 5234SOL    HW220708   4.329   5.839   2.263 -1.0627 -0.4158 -0.5475
 5234SOL    HW320709   4.451   5.753   2.290 -0.3610  0.9566  0.8062
 5234SOL    MW420710   4.389   5.782   2.236 -0.2038  0.0805  0.0488
 5235SOL     OW20711   2.629   2.909   2.039 -0.2956  0.5225  0.2588
 5235SOL    HW220712   2.582   2.959   1.972 -0.5731  1.4221  1.1114
 5235SOL    HW320713   2.688   2.973   2.079 -0.5861  0.1487  1.3064
 5235SOL    MW420714   2.631   2.924   2.035  0.5068 -0.4535  0.3648
 5236SOL     OW20715   4.325   2.316   1.037  0.2178  0.0152  0.4084
 5236SOL    HW220716   4.312   2.257   0.962  1.4885 -0.2328  0.3679
 5236SOL    HW320717   4.414   2.349   1.027 -0.2441  1.4547  0.8014
 5236SOL    MW420718   4.335   2.312   1.026 -0.0325 -0.2992 -0.0280
 5237SOL     OW20719   2.914   0.575   4.079  0.1126  0.3173 -0.1469
 5237SOL    HW220720   2.823   0.584   4.050  0.3886  2.4888 -0.5583
 5237SOL    HW320721   2.910   0.520   4.156 -1.5102  0.0504 -0.3928
 5237SOL    MW420722   2.902   0.569   4.085 -0.6128 -0.9100 -0.7739
 5238SOL     OW20723   1.261   0.560   5.227  0.2145  0.6096 -0.1284
 5238SOL    HW220724   1.267   0.529   5.137  1.5583  0.2326  0.0665
 5238SOL    HW320725   1.176   0.527   5.258  0.3218 -0.3853 -0.8399
 5238SOL    MW420726   1.250   0.551   5.219  0.1521 -0.0203 -0.2208
 5239SOL     OW20727   2.361   0.804   1.239  0.1504  0.2223  0.2038
 5239SOL    HW220728   2.413   0.750   1.299  0.6492 -1.3666 -1.5488
 5239SOL    HW320729   2.422   0.870   1.206  0.5752 -0.4849 -0.4503
 5239SOL    MW420730   2.376   0.805   1.243  0.1031 -0.3193 -0.1233
 5240SOL     OW20731   3.594   2.027   4.776 -0.3330 -0.3290 -0.3167
 5240SOL    HW220732   3.677   2.069   4.752 -0.4374  0.9115  1.3058
 5240SOL    HW320733   3.589   1.949   4.720  2.4206 -0.9963  0.2168
 5240SOL    MW420734   3.605   2.022   4.765  0.4767 -0.0785  0.2110
 5241SOL     OW20735   1.259   5.899   6.263 -0.0808 -0.3072 -0.0705
 5241SOL    HW220736   1.276   5.987   6.228 -1.1581 -0.0441  0.0389
 5241SOL    HW320737   1.289   5.840   6.194  1.0651  0.1206  0.0355
 5241SOL    MW420738   1.265   5.903   6.249 -0.7832 -0.2089 -0.5805
 5242SOL     OW20739   4.355   5.644   1.405 -0.9218  0.0265  0.0078
 5242SOL    HW220740   4.366   5.683   1.319 -0.1985  0.8900  0.4767
 5242SOL    HW320741   4.435   5.666   1.452 -2.3548  1.8530  1.7692
 5242SOL    MW420742   4.367   5.652   1.400  0.2084  0.0749 -0.1886
 5243SOL     OW20743   3.675   1.789   4.415 -0.1317  0.4916 -0.1954
 5243SOL    HW220744   3.614   1.759   4.347 -0.0082 -0.2054 -0.0046
 5243SOL    HW320745   3.751   1.730   4.406 -0.5016 -0.2367  1.1655
 5243SOL    MW420746   3.677   1.777   4.405 -0.0598  0.0193 -0.1352
 5244SOL     OW20747   4.824   5.061   0.379  0.3861  0.5233 -0.2551
 5244SOL    HW220748   4.853   5.086   0.292 -0.2743  1.5218 -0.2049
 5244SOL    HW320749   4.747   5.006   0.363  0.0793  0.9593 -0.3062
 5244SOL    MW420750   4.817   5.057   0.365  0.2510  0.5744 -0.8044
 5245SOL     OW20751   1.333   5.662   1.605  0.7538 -0.4672 -0.0735
 5245SOL    HW220752   1.364   5.572   1.611  0.3778 -0.5607  0.5499
 5245SOL    HW320753   1.248   5.661   1.647  0.3521  0.0018 -0.8479
 5245SOL    MW420754   1.326   5.650   1.611 -0.3357 -0.5452  0.2680
 5246SOL     OW20755   0.893   5.483   5.644 -0.1986  0.5928 -0.5695
 5246SOL    HW220756   0.979   5.442   5.640  0.1812  1.2681  0.2784
 5246SOL    HW320757   0.892   5.546   5.573  0.1165  0.7754 -0.4137
 5246SOL    MW420758   0.904   5.486   5.634 -0.6969  0.3492  0.4553
 5247SOL     OW20759   6.093   1.002   0.941 -0.1939  0.2435  0.2840
 5247SOL    HW220760   6.101   1.086   0.896  0.7908 -0.2889 -0.5794
 5247SOL    HW320761   6.180   0.986   0.977 -0.4463 -0.2918  0.6704
 5247SOL    MW420762   6.105   1.011   0.940  0.3105  0.3124  0.1302
 5248SOL     OW20763   1.233   2.357   4.504 -0.1924 -0.2309  0.7323
 5248SOL    HW220764   1.292   2.424   4.468  0.9059 -0.9845  1.1001
 5248SOL    HW320765   1.206   2.306   4.428  1.3874 -1.2429  0.8228
 5248SOL    MW420766   1.237   2.359   4.489  0.1008 -0.4202  0.2685
 5249SOL     OW20767   3.500   3.533   3.743 -0.3386  0.0452  0.5649
 5249SOL    HW220768   3.540   3.618   3.722 -2.8527  1.4844  1.1095
 5249SOL    HW320769   3.522   3.519   3.835 -2.4426  1.7954  1.4505
 5249SOL    MW420770   3.508   3.543   3.753 -1.1042 -0.9098  0.1341
 5250SOL     OW20771   3.135   1.898   0.289  0.6827  0.0285  0.1762
 5250SOL    HW220772   3.130   1.900   0.384  0.4579  0.6621  0.1545
 5250SOL    HW320773   3.219   1.856   0.270  0.7480 -0.0568  0.6495
 5250SOL    MW420774   3.145   1.893   0.299 -1.0030 -0.0753  0.4787
 5251SOL     OW20775   4.801   2.168   1.078  0.1511  0.2598  0.3928
 5251SOL    HW220776   4.796   2.157   1.173 -0.5221 -0.9251  0.2298
 5251SOL    HW320777   4.718   2.208   1.054  0.3606  0.6499  0.3000
 5251SOL    MW420778   4.790   2.172   1.087 -0.3635  0.2405 -0.0980
 5252SOL     OW20779   3.927   4.159   4.733  0.0452 -0.6427  0.3317
 5252SOL    HW220780   4.014   4.197   4.742  0.8784 -2.8793  3.0443
 5252SOL    HW320781   3.879   4.189   4.810 -0.9914 -0.8954 -0.1974
 5252SOL    MW420782   3.932   4.168   4.744 -0.1624 -0.2427  0.0015
 5253SOL     OW20783   3.446   2.823   2.611 -0.2304  0.6292  0.3769
 5253SOL    HW220784   3.464   2.894   2.673 -1.3098  1.6969 -0.5039
 5253SOL    HW320785   3.402   2.865   2.538  0.6883 -0.6694 -0.9779
 5253SOL    MW420786   3.443   2.838   2.610  0.7601  0.1006 -0.3575
 5254SOL     OW20787   4.330   4.019   0.357 -0.2455 -0.4711 -0.2643
 5254SOL    HW220788   4.343   4.104   0.314 -2.2558 -0.1604 -0.3334
 5254SOL    HW320789   4.330   3.956   0.285 -1.4050 -0.2004 -0.5214
 5254SOL    MW420790   4.332   4.022   0.342 -0.2558 -0.2365 -0.7922
 5255SOL     OW20791   0.069   0.529   0.097  0.2920  0.4219  0.1838
 5255SOL    HW220792   0.053   0.584   0.021  3.0687 -0.4523 -1.1695
 5255SOL    HW320793  -0.016   0.524   0.142 -1.0693  2.1906 -1.9929
 5255SOL    MW420794   0.056   0.535   0.093 -0.1120 -0.7177 -0.1803
 5256SOL     OW20795   5.949   5.456   1.639  0.1456 -0.5069  0.0009
 5256SOL    HW220796   5.927   5.463   1.732  1.4618 -0.7319  0.3548
 5256SOL    HW320797   6.007   5.380   1.634 -0.0629 -0.6129 -1.0411
 5256SOL    MW420798   5.954   5.447   1.651 -0.5369  0.3344 -0.3003
 5257SOL     OW20799   4.570   5.632   3.451  0.1086  0.2046 -0.0181
 5257SOL    HW220800   4.479   5.660   3.453 -0.3930 -1.3297  0.1905
 5257SOL    HW320801   4.584   5.602   3.360  1.5723  3.8650 -1.1764
 5257SOL    MW420802   4.560   5.631   3.439 -0.1390  0.0788  0.6130
 5258SOL     OW20803   4.478   6.385   3.313 -0.4467  0.6458 -0.3485
 5258SOL    HW220804   4.510   6.325   3.246 -2.0660  1.2555 -1.7432
 5258SOL    HW320805   4.552   6.398   3.372  0.8928 -0.2452 -1.7795
 5258SOL    MW420806   4.492   6.379   3.312 -0.1521  0.5213 -0.2023
 5259SOL     OW20807   0.732   1.050   2.829 -0.9263  0.1331 -0.0482
 5259SOL    HW220808   0.758   1.140   2.848 -0.9142 -0.4831  3.5681
 5259SOL    HW320809   0.683   1.022   2.906 -0.7246 -3.0289 -0.9194
 5259SOL    MW420810   0.729   1.058   2.842 -0.6311  0.2341 -0.5402
 5260SOL     OW20811   2.444   0.358   2.822  0.1129  0.1328 -0.5932
 5260SOL    HW220812   2.367   0.394   2.866 -0.5756  0.2134 -1.8029
 5260SOL    HW320813   2.500   0.326   2.893 -1.5267 -0.9414  0.2910
 5260SOL    MW420814   2.441   0.359   2.837  0.3412  0.7731  0.2293
 5261SOL     OW20815   5.457   3.899   1.208  0.2514  0.0897 -0.4560
 5261SOL    HW220816   5.476   3.890   1.301 -5.1654  0.7757  1.0364
 5261SOL    HW320817   5.441   3.992   1.195 -0.5691 -0.1946 -1.6837
 5261SOL    MW420818   5.457   3.910   1.218 -0.0096  0.0913 -0.6237
 5262SOL     OW20819   3.939   5.388   4.393  0.2989 -0.1631  0.2911
 5262SOL    HW220820   3.868   5.350   4.445 -1.3449 -0.7227 -2.1962
 5262SOL    HW320821   3.907   5.475   4.369  1.3169  0.3447  0.7513
 5262SOL    MW420822   3.925   5.394   4.397 -0.1800  0.0852  0.3208
 5263SOL     OW20823   3.845   2.652   3.338  0.4459  0.2950 -0.1776
 5263SOL    HW220824   3.931   2.646   3.380  0.1649  0.5576  0.4504
 5263SOL    HW320825   3.864   2.655   3.245  1.1479  1.0074 -0.0180
 5263SOL    MW420826   3.859   2.651   3.331  0.4891  0.5908  0.6591
 5264SOL     OW20827   1.693   5.230   2.616 -0.3215  0.1170 -0.1232
 5264SOL    HW220828   1.788   5.219   2.605 -0.3434 -0.5910  0.2907
 5264SOL    HW320829   1.684   5.284   2.694 -0.2430  1.6463 -1.1296
 5264SOL    MW420830   1.704   5.235   2.625  0.6305  0.1390 -0.0152
 5265SOL     OW20831   4.373   0.763   3.417 -0.6743  0.5823  0.4001
 5265SOL    HW220832   4.447   0.761   3.478 -0.0484 -0.8892 -0.3294
 5265SOL    HW320833   4.296   0.746   3.471 -0.0737 -1.2693  0.7580
 5265SOL    MW420834   4.373   0.760   3.432  0.5645  0.5263 -0.2781
 5266SOL     OW20835   4.713   0.490   0.355  0.2213  0.3923 -0.0468
 5266SOL    HW220836   4.758   0.472   0.272 -2.8916 -0.6073 -1.6964
 5266SOL    HW320837   4.724   0.409   0.405  1.4828  0.7196  0.2307
 5266SOL    MW420838   4.720   0.477   0.351 -0.2384 -0.6472  0.4698
 5267SOL     OW20839   0.936   2.755   5.994 -0.0810 -0.3246  0.0030
 5267SOL    HW220840   0.962   2.699   6.067 -1.5436 -0.1508  0.6991
 5267SOL    HW320841   1.016   2.799   5.968  0.6118 -0.9304  1.0386
 5267SOL    MW420842   0.950   2.753   6.000 -0.4324  0.7027  0.0450
 5268SOL     OW20843   4.662   5.114   2.886 -0.3072 -0.5786  0.2462
 5268SOL    HW220844   4.621   5.197   2.862 -0.0825 -0.5441 -0.0230
 5268SOL    HW320845   4.718   5.093   2.812  1.0662 -0.0324  1.0934
 5268SOL    MW420846   4.664   5.122   2.873  0.4211 -0.1729  0.0658
 5269SOL     OW20847   2.136   2.487   0.990 -0.1081 -0.1104 -0.1451
 5269SOL    HW220848   2.225   2.516   0.969 -0.0611  0.2321  0.5011
 5269SOL    HW320849   2.097   2.466   0.905 -0.4620  2.7157 -0.7679
 5269SOL    MW420850   2.143   2.488   0.976  0.3083  0.0093  0.3424
 5270SOL     OW20851   4.779   4.433   4.520  0.0136  0.4546 -0.1551
 5270SOL    HW220852   4.765   4.520   4.482  1.2230  1.2425  1.1064
 5270SOL    HW320853   4.833   4.387   4.456 -0.7691  0.5449 -0.9027
 5270SOL    MW420854   4.784   4.438   4.506  0.3167 -0.4271 -1.1440
 5271SOL     OW20855   4.710   3.542   5.027 -0.0425 -0.1991 -0.2085
 5271SOL    HW220856   4.670   3.522   4.943  0.6354 -0.5653 -0.4547
 5271SOL    HW320857   4.705   3.637   5.035  0.7245 -0.0756 -1.0945
 5271SOL    MW420858   4.704   3.552   5.017  0.0784  0.4837  0.2361
 5272SOL     OW20859   3.658   0.717   0.344 -0.0893  0.2736  0.4069
 5272SOL    HW220860   3.744   0.716   0.302 -0.6633  2.0785 -0.9160
 5272SOL    HW320861   3.674   0.686   0.433  1.5719 -1.3521 -0.3989
 5272SOL    MW420862   3.671   0.713   0.350  0.8020  0.0298  0.2554
 5273SOL     OW20863   5.027   1.802   3.055 -0.1682 -0.0542 -0.1423
 5273SOL    HW220864   4.955   1.799   3.118 -2.3494 -1.8603 -2.5060
 5273SOL    HW320865   5.014   1.725   3.000  1.6736  1.3184 -2.7180
 5273SOL    MW420866   5.016   1.792   3.057 -0.3361 -0.4172  0.1253
 5274SOL     OW20867   3.672   4.779   4.995 -0.3596  0.3619  0.2220
 5274SOL    HW220868   3.762   4.748   4.994 -0.3374  0.4170  0.5244
 5274SOL    HW320869   3.647   4.781   4.902 -0.7513 -1.6976  0.2266
 5274SOL    MW420870   3.680   4.775   4.982 -0.2082  0.0736  0.2016
 5275SOL     OW20871   4.687   0.177   6.167 -0.2668  0.4241  0.1990
 5275SOL    HW220872   4.759   0.149   6.224  0.6719 -1.5109 -1.7958
 5275SOL    HW320873   4.726   0.241   6.108 -0.3019 -0.1928 -0.5092
 5275SOL    MW420874   4.701   0.182   6.167  0.1582  0.6449  0.5714
 5276SOL     OW20875   0.768   1.459   3.103  0.5482  0.7154 -0.3864
 5276SOL    HW220876   0.690   1.412   3.133 -0.1652  0.6408 -2.2097
 5276SOL    HW320877   0.753   1.550   3.126  0.1119  0.6287 -0.3321
 5276SOL    MW420878   0.756   1.465   3.110  0.3834 -0.4654  0.1065
 5277SOL     OW20879   1.690   5.874   4.806  0.8103 -0.2321  0.0614
 5277SOL    HW220880   1.718   5.877   4.897  0.4515  1.0073  0.1510
 5277SOL    HW320881   1.651   5.788   4.796 -0.2204  0.0338  1.4283
 5277SOL    MW420882   1.688   5.863   4.816 -0.2508 -0.3379  0.2418
 5278SOL     OW20883   1.686   3.955   2.207 -0.3704 -0.1281  0.3875
 5278SOL    HW220884   1.738   4.033   2.228  0.2862 -0.4771  0.0992
 5278SOL    HW320885   1.707   3.893   2.277  0.2567 -0.5647 -0.1632
 5278SOL    MW420886   1.696   3.957   2.219 -0.0971  0.1935 -0.3601
 5279SOL     OW20887   3.594   5.229   4.071  0.2248 -0.4148 -0.0562
 5279SOL    HW220888   3.578   5.318   4.102 -0.5784 -0.1227 -1.2351
 5279SOL    HW320889   3.561   5.228   3.981 -1.2266 -2.3246  0.4290
 5279SOL    MW420890   3.588   5.240   4.063  0.6006 -0.8043  0.6534
 5280SOL     OW20891   3.757   2.261   4.086  0.2228 -0.6856  0.0607
 5280SOL    HW220892   3.721   2.297   4.167  0.2074  1.3468 -0.7957
 5280SOL    HW320893   3.780   2.171   4.108 -0.7208 -0.4960  2.0282
 5280SOL    MW420894   3.755   2.254   4.100 -0.7978  0.0151 -0.3749
 5281SOL     OW20895   4.042   2.911   1.739 -0.6137 -0.0636  0.0699
 5281SOL    HW220896   4.088   2.988   1.705  0.8661 -1.5916 -1.6221
 5281SOL    HW320897   4.098   2.881   1.812  1.2698 -1.9138 -1.9790
 5281SOL    MW420898   4.056   2.918   1.744  0.7465 -0.4073 -0.0294
 5282SOL     OW20899   5.542   1.657   2.225 -0.0911 -0.1250  0.0190
 5282SOL    HW220900   5.624   1.666   2.176 -0.4989  0.8485 -0.5144
 5282SOL    HW320901   5.560   1.696   2.310  0.2374 -0.6580  0.1972
 5282SOL    MW420902   5.555   1.664   2.230 -0.4542 -0.8032 -0.9898
 5283SOL     OW20903   1.335   1.743   2.953  0.3444 -0.0906  0.3907
 5283SOL    HW220904   1.241   1.764   2.959  0.5898  1.0803  0.2148
 5283SOL    HW320905   1.377   1.826   2.933  1.3059 -0.8540 -0.8420
 5283SOL    MW420906   1.328   1.757   2.951 -0.0460  0.6015 -0.0245
 5284SOL     OW20907   1.302   4.850   4.849  0.0811 -0.1073  0.3017
 5284SOL    HW220908   1.365   4.824   4.916  0.8397 -0.5050 -0.5554
 5284SOL    HW320909   1.355   4.881   4.776 -0.4448 -3.7842 -1.8936
 5284SOL    MW420910   1.317   4.850   4.848  0.2480  0.2257 -0.4323
 5285SOL     OW20911   0.061   6.139   3.743  0.7953 -0.1364  0.4871
 5285SOL    HW220912   0.107   6.081   3.683 -1.5134 -1.0940 -0.4690
 5285SOL    HW320913   0.103   6.224   3.731  0.6239 -0.3617 -2.3093
 5285SOL    MW420914   0.072   6.143   3.734  0.4405  0.0971 -0.6221
 5286SOL     OW20915   3.503   2.687   4.715  0.4407  0.0825 -0.2416
 5286SOL    HW220916   3.584   2.651   4.750  0.6372  0.6294 -0.1204
 5286SOL    HW320917   3.513   2.681   4.620  1.0754  1.0997 -0.2535
 5286SOL    MW420918   3.515   2.682   4.707  0.0673 -0.1426  0.5583
 5287SOL     OW20919   4.091   1.694   2.924 -0.3926 -0.4366  0.3550
 5287SOL    HW220920   4.043   1.660   2.999 -0.0857 -0.7654  0.4075
 5287SOL    HW320921   4.024   1.724   2.864 -0.6132  1.5119  1.5188
 5287SOL    MW420922   4.076   1.693   2.926 -0.4018 -0.0462 -0.4909
 5288SOL     OW20923   2.156   4.867   5.709  0.2543 -0.3871  0.1889
 5288SOL    HW220924   2.218   4.832   5.645  0.0557 -1.2699  0.4749
 5288SOL    HW320925   2.072   4.827   5.686  0.5440 -2.3859  2.2319
 5288SOL    MW420926   2.153   4.857   5.697  0.0271 -0.1637 -0.2186
 5289SOL     OW20927   0.377   1.581   1.742 -0.0415 -0.1732 -0.9153
 5289SOL    HW220928   0.394   1.561   1.650 -2.0049 -1.8306 -0.9599
 5289SOL    HW320929   0.327   1.663   1.740 -0.9506 -0.7385 -1.3862
 5289SOL    MW420930   0.373   1.589   1.730  0.4886 -0.4217 -0.3602
 5290SOL     OW20931   3.243   0.332   2.034  0.1267  0.1746 -0.1097
 5290SOL    HW220932   3.273   0.305   1.947 -1.7698 -0.6740 -0.5432
 5290SOL    HW320933   3.190   0.409   2.019  0.1504  0.2830  0.3534
 5290SOL    MW420934   3.240   0.338   2.021  0.5471  0.5267 -0.0624
 5291SOL     OW20935   1.073   4.827   2.193 -0.1499 -0.0513 -0.4412
 5291SOL    HW220936   1.115   4.765   2.252 -0.8681  0.3116  0.4704
 5291SOL    HW320937   1.135   4.900   2.186  0.2180 -0.3843 -0.6572
 5291SOL    MW420938   1.087   4.829   2.200  0.4990  0.0023  0.2985
 5292SOL     OW20939   1.192   2.801   3.518 -0.1429  0.1580  0.0539
 5292SOL    HW220940   1.104   2.767   3.506  0.6034 -1.6316 -0.7497
 5292SOL    HW320941   1.181   2.876   3.576 -2.1710 -0.0591  0.0234
 5292SOL    MW420942   1.179   2.806   3.524 -0.1973 -0.3439  0.2995
 5293SOL     OW20943   2.068   2.934   3.881  0.2419  0.0487 -0.2701
 5293SOL    HW220944   2.025   2.863   3.928  2.0966 -1.2195 -0.3543
 5293SOL    HW320945   2.101   2.894   3.801 -1.5858  1.8371 -2.0365
 5293SOL    MW420946   2.067   2.919   3.877 -0.2152 -0.4265  0.1529
 5294SOL     OW20947   5.354   0.531   0.532  0.3585  0.1540 -0.3703
 5294SOL    HW220948   5.268   0.570   0.516 -0.0753  0.7089  2.5881
 5294SOL    HW320949   5.341   0.437   0.520 -0.6722  0.2393 -0.0135
 5294SOL    MW420950   5.341   0.524   0.528 -0.3772 -0.0877 -0.3963
 5295SOL     OW20951   3.193   5.309   3.601  0.3128  0.6691 -0.2285
 5295SOL    HW220952   3.101   5.283   3.615  0.6745 -0.2367  0.5637
 5295SOL    HW320953   3.241   5.226   3.598  1.1919  1.1596  0.0254
 5295SOL    MW420954   3.187   5.295   3.603  0.1991 -0.4407 -0.2627
 5296SOL     OW20955   1.257   3.690   3.298 -0.1399  0.6479 -0.3893
 5296SOL    HW220956   1.320   3.618   3.296  0.0002  0.7780 -0.6046
 5296SOL    HW320957   1.205   3.678   3.219 -0.7059  0.2544  0.0333
 5296SOL    MW420958   1.259   3.679   3.287  0.1369  0.1222 -0.4240
 5297SOL     OW20959   5.291   0.614   1.280  0.3006  0.0287 -0.3363
 5297SOL    HW220960   5.287   0.708   1.263 -0.8952 -0.1869 -1.3641
 5297SOL    HW320961   5.366   0.603   1.339  1.0780  1.4922 -1.0209
 5297SOL    MW420962   5.300   0.625   1.286 -0.2850  0.4450 -0.0767
 5298SOL     OW20963   0.390   6.334   3.787  0.2354  0.3715 -0.0610
 5298SOL    HW220964   0.304   6.340   3.828 -0.5246 -0.9453 -1.3730
 5298SOL    HW320965   0.436   6.412   3.817 -0.8835  0.3620  1.8376
 5298SOL    MW420966   0.385   6.345   3.797  0.0989 -0.4310 -1.0034
 5299SOL     OW20967   3.531   3.357   2.432  0.1991 -0.8926 -0.1700
 5299SOL    HW220968   3.607   3.306   2.402  1.2566  0.6142 -0.2083
 5299SOL    HW320969   3.548   3.371   2.525  0.2760 -0.0902 -0.2940
 5299SOL    MW420970   3.544   3.352   2.440 -0.2142 -0.3537  0.0489
 5300SOL     OW20971   5.815   5.194   6.047  0.3461  0.0881 -0.4595
 5300SOL    HW220972   5.883   5.137   6.010  0.7797  0.6712 -0.5768
 5300SOL    HW320973   5.733   5.150   6.026  0.7263 -1.5643  1.2259
 5300SOL    MW420974   5.813   5.181   6.039 -0.4373  0.2331  0.2595
 5301SOL     OW20975   2.443   5.614   3.864  0.0665 -0.1899 -0.3866
 5301SOL    HW220976   2.348   5.622   3.858 -0.4768 -3.4406  1.3372
 5301SOL    HW320977   2.468   5.564   3.786  0.2259 -0.0105 -0.4502
 5301SOL    MW420978   2.434   5.608   3.853  0.3032 -0.2742  0.5929
 5302SOL     OW20979   4.773   3.955   0.032 -0.1743 -0.6714  0.1167
 5302SOL    HW220980   4.840   4.019   0.009 -0.8765  0.4920  1.1961
 5302SOL    HW320981   4.732   3.932  -0.052 -0.9913  1.5437 -0.1444
 5302SOL    MW420982   4.776   3.960   0.017  0.0109 -0.2225  0.1452
 5303SOL     OW20983   2.304   1.323   1.763  0.0936  0.2873 -0.3144
 5303SOL    HW220984   2.288   1.304   1.671 -0.6566  1.2386 -0.3983
 5303SOL    HW320985   2.399   1.326   1.771  0.1627  0.4098 -1.1076
 5303SOL    MW420986   2.314   1.321   1.752  0.1192  0.0769 -0.1742
 5304SOL     OW20987   4.428   3.360   0.749 -0.3368 -0.0456  0.2460
 5304SOL    HW220988   4.335   3.353   0.770  0.2555 -3.8356  2.6977
 5304SOL    HW320989   4.441   3.301   0.675 -0.0263  1.7799 -1.2428
 5304SOL    MW420990   4.417   3.351   0.742  0.0075 -0.2304  0.0468
 5305SOL     OW20991   4.136   6.378   4.682  0.6043 -0.1101  0.6042
 5305SOL    HW220992   4.131   6.468   4.716  0.0406  0.4762 -0.9323
 5305SOL    HW320993   4.169   6.326   4.755 -3.2183  0.5122  3.0311
 5305SOL    MW420994   4.140   6.383   4.696 -0.3102 -0.2765 -0.1302
 5306SOL     OW20995   2.850   5.629   0.624  0.6939 -0.2976  0.1094
 5306SOL    HW220996   2.939   5.664   0.624  0.5075  0.1965  0.5530
 5306SOL    HW320997   2.814   5.656   0.709  0.0458 -0.2864 -0.1645
 5306SOL    MW420998   2.857   5.638   0.635  0.3287  0.0378  0.7444
 5307SOL     OW20999   5.714   2.485   4.677  0.3726 -0.0487 -0.4958
 5307SOL    HW221000   5.641   2.508   4.735  0.8572 -0.0064  0.1115
 5307SOL    HW321001   5.708   2.547   4.604  0.5513  0.7831  0.1841
 5307SOL    MW421002   5.703   2.496   4.675 -0.1607 -0.3235  0.5327
 5308SOL     OW21003   2.222   3.928   6.048  0.8378 -0.3331  0.3440
 5308SOL    HW221004   2.305   3.974   6.060  1.5049 -1.1377 -0.9800
 5308SOL    HW321005   2.245   3.835   6.047  0.3339 -0.5109 -2.6067
 5308SOL    MW421006   2.236   3.922   6.050 -0.5265 -0.0990  0.7015
 5309SOL     OW21007   1.395   0.939   5.498 -0.3701 -0.0752  0.1621
 5309SOL    HW221008   1.302   0.956   5.482  0.1208  1.9744 -0.8895
 5309SOL    HW321009   1.440   1.017   5.465  1.5252  0.3277  3.2413
 5309SOL    MW421010   1.389   0.952   5.492 -0.0024  0.0944  0.4820
 5310SOL     OW21011   0.805   1.829   1.483 -0.4596 -0.5430 -0.6222
 5310SOL    HW221012   0.792   1.914   1.440 -0.2710 -0.9308 -1.4705
 5310SOL    HW321013   0.886   1.840   1.533 -2.0666  0.7812  1.9060
 5310SOL    MW421014   0.814   1.842   1.484 -0.5165 -0.3919 -0.4599
 5311SOL     OW21015   1.757   0.262   5.006  1.1240  0.0701  0.6639
 5311SOL    HW221016   1.727   0.282   5.094 -0.6626 -1.8086  0.5554
 5311SOL    HW321017   1.678   0.266   4.952  1.6799 -1.4724 -0.3272
 5311SOL    MW421018   1.743   0.265   5.010 -0.5645  0.8133  0.6874
 5312SOL     OW21019   5.074   1.757   0.977 -0.0492 -0.2157  0.0496
 5312SOL    HW221020   5.086   1.687   1.042  0.1406  0.3121  0.5869
 5312SOL    HW321021   4.981   1.779   0.983 -0.1771 -0.6373 -0.3445
 5312SOL    MW421022   5.063   1.750   0.986 -0.6133 -0.3189  0.2890
 5313SOL     OW21023   1.491   3.272   0.215 -0.2101 -0.2418  0.2354
 5313SOL    HW221024   1.546   3.281   0.293  0.8899 -0.0164 -0.5496
 5313SOL    HW321025   1.403   3.293   0.246  0.4335  1.3388  1.0931
 5313SOL    MW421026   1.487   3.276   0.229 -0.0223 -0.8563  0.3857
 5314SOL     OW21027   4.305   2.400   3.825 -0.9970  0.5691  0.4320
 5314SOL    HW221028   4.282   2.423   3.915 -1.7938  2.7471 -0.2582
 5314SOL    HW321029   4.226   2.361   3.789 -0.8809  0.2810  0.4864
 5314SOL    MW421030   4.292   2.398   3.832 -0.1449 -0.4035  0.0168
 5315SOL     OW21031   6.418   0.966   4.873  0.0044  0.3360  0.9702
 5315SOL    HW221032   6.512   0.981   4.882 -0.0081  1.3005 -0.1476
 5315SOL    HW321033   6.410   0.911   4.795 -0.3755  0.4626  0.9189
 5315SOL    MW421034   6.429   0.961   4.864 -0.2112 -0.2307 -0.0947
 5316SOL     OW21035   2.453   4.514   4.700 -0.0406 -0.2105  0.1621
 5316SOL    HW221036   2.450   4.482   4.791  1.0655 -1.5100 -0.2125
 5316SOL    HW321037   2.500   4.445   4.653 -1.2138  0.1139 -1.5515
 5316SOL    MW421038   2.459   4.500   4.706  0.0670 -0.3014 -0.2438
 5317SOL     OW21039   0.940   6.035   1.531  0.2631  0.3840  0.1472
 5317SOL    HW221040   0.958   5.988   1.612 -0.3336  0.8411  0.5524
 5317SOL    HW321041   0.856   6.079   1.546  1.3062  2.4936  0.2183
 5317SOL    MW421042   0.931   6.034   1.544  0.7937 -0.0186  0.4247
 5318SOL     OW21043   3.258   4.940   1.247  0.2752  0.5165  0.1464
 5318SOL    HW221044   3.190   4.948   1.314  0.4983 -2.9419  1.0161
 5318SOL    HW321045   3.220   4.980   1.169 -2.3023 -0.2423  0.9118
 5318SOL    MW421046   3.244   4.946   1.246  0.5804  0.8456  0.5932
 5319SOL     OW21047   2.642   0.107   3.489 -0.2307 -0.6055  0.0913
 5319SOL    HW221048   2.669   0.043   3.555  0.2731 -1.3432 -0.8186
 5319SOL    HW321049   2.637   0.057   3.408  1.6718  0.8045 -0.9543
 5319SOL    MW421050   2.645   0.092   3.487 -0.1391  0.0926  0.2134
 5320SOL     OW21051   5.656   2.352   1.992  0.4028  0.2571 -0.1072
 5320SOL    HW221052   5.623   2.351   1.902 -0.4992  2.8041  0.1103
 5320SOL    HW321053   5.746   2.383   1.984  1.2533 -2.0849 -0.2932
 5320SOL    MW421054   5.663   2.356   1.979  0.4855  0.2005 -0.2107
 5321SOL     OW21055   2.678   3.011   4.494  0.0291 -0.1804 -0.8726
 5321SOL    HW221056   2.601   2.956   4.510  0.5702 -0.5537  0.6203
 5321SOL    HW321057   2.707   2.987   4.406  0.0846 -2.1347 -0.3737
 5321SOL    MW421058   2.672   3.000   4.485 -0.5560  0.6433 -0.4532
 5322SOL     OW21059   4.485   2.168   1.963 -0.3719  0.1319  0.1639
 5322SOL    HW221060   4.455   2.155   2.053 -2.1174 -0.8349 -0.5219
 5322SOL    HW321061   4.445   2.097   1.913  1.7550 -0.2441 -1.1526
 5322SOL    MW421062   4.476   2.157   1.969 -0.1588  0.2021 -0.2080
 5323SOL     OW21063   0.663   2.791   1.064 -0.6004 -0.2762  0.3231
 5323SOL    HW221064   0.629   2.879   1.047 -0.4253 -0.3272 -0.3033
 5323SOL    HW321065   0.753   2.806   1.095 -0.7811 -0.2048  0.8197
 5323SOL    MW421066   0.670   2.804   1.066  0.3324  0.7141  0.5088
 5324SOL     OW21067   1.790   4.757   2.223  0.1369 -0.6449 -0.2902
 5324SOL    HW221068   1.882   4.757   2.249 -0.0076  0.1194  0.2299
 5324SOL    HW321069   1.761   4.847   2.233 -1.2560 -1.2359  1.6591
 5324SOL    MW421070   1.798   4.769   2.228  0.4638 -0.1285  0.0122
 5325SOL     OW21071   5.957   0.206   2.051  0.1913 -0.4380 -0.2902
 5325SOL    HW221072   5.925   0.181   2.137  2.0613  1.3735  1.0166
 5325SOL    HW321073   6.030   0.146   2.034  0.7033  0.0828  0.0345
 5325SOL    MW421074   5.962   0.194   2.060 -0.4945 -0.1874 -0.6006
 5326SOL     OW21075   3.494   0.108   4.735 -0.1211 -0.1045 -0.1811
 5326SOL    HW221076   3.548   0.187   4.725  0.4373 -0.5989 -1.3719
 5326SOL    HW321077   3.438   0.108   4.657  0.8677 -1.5949 -0.9360
 5326SOL    MW421078   3.494   0.118   4.723  0.4981  0.1817  0.3708
 5327SOL     OW21079   4.310   3.746   5.091  0.0961 -0.7784 -0.1386
 5327SOL    HW221080   4.277   3.835   5.075 -1.5341 -1.0149  1.5441
 5327SOL    HW321081   4.382   3.759   5.153  0.3279 -0.5857 -0.4439
 5327SOL    MW421082   4.315   3.760   5.097  0.1687 -0.3421  0.2311
 5328SOL     OW21083   0.971   0.746   2.591 -0.4666  0.6693 -0.7101
 5328SOL    HW221084   0.961   0.656   2.622 -1.6491  0.5386 -1.4276
 5328SOL    HW321085   1.024   0.739   2.512  0.2614  0.7216 -0.2390
 5328SOL    MW421086   0.977   0.734   2.585  0.3649  0.0332 -0.2788
 5329SOL     OW21087   1.206   4.564   1.654 -1.1288 -0.2712 -0.1745
 5329SOL    HW221088   1.192   4.550   1.748 -1.1514 -1.6315 -0.3598
 5329SOL    HW321089   1.172   4.484   1.613  0.7725 -0.6113 -1.1757
 5329SOL    MW421090   1.200   4.551   1.661 -0.6543  0.5148 -0.0454
 5330SOL     OW21091   5.180   5.380   0.805 -0.8082  0.1697  0.7777
 5330SOL    HW221092   5.220   5.392   0.891  1.8231  0.5355 -0.4050
 5330SOL    HW321093   5.171   5.468   0.769  0.4495 -0.0904 -0.2605
 5330SOL    MW421094   5.184   5.393   0.812  0.1874 -0.4217  0.7874
 5331SOL     OW21095   6.019   6.344   4.381 -0.5926  0.1670 -0.7572
 5331SOL    HW221096   6.058   6.300   4.457 -1.3782 -0.4728 -0.7036
 5331SOL    HW321097   6.052   6.434   4.385 -0.7323  0.1850  0.4369
 5331SOL    MW421098   6.028   6.350   4.392  0.2987  0.2360 -0.3318
 5332SOL     OW21099   0.985   2.800   1.734 -0.3535 -0.5599 -0.1854
 5332SOL    HW221100   1.075   2.779   1.709  0.5596  2.0503  0.6126
 5332SOL    HW321101   0.932   2.734   1.690  1.8439 -1.4373 -1.6772
 5332SOL    MW421102   0.990   2.789   1.725  0.4746  0.4179  0.6452
 5333SOL     OW21103   1.681   6.032   5.730  0.2292  0.1070 -0.4496
 5333SOL    HW221104   1.635   6.098   5.782  0.8243  0.2609 -0.1052
 5333SOL    HW321105   1.765   6.022   5.774  0.7798  0.2992 -1.4340
 5333SOL    MW421106   1.686   6.039   5.743 -0.0751  0.0915 -0.3849
 5334SOL     OW21107   3.077   2.486   0.414 -1.2587 -0.3384 -0.0882
 5334SOL    HW221108   2.981   2.495   0.414 -1.0790  3.0877  0.8169
 5334SOL    HW321109   3.101   2.489   0.506 -0.1764  1.3983 -0.3951
 5334SOL    MW421110   3.067   2.488   0.426 -0.0675  0.7332  0.5537
 5335SOL     OW21111   1.086   6.308   4.917 -0.2604  0.5001  0.6715
 5335SOL    HW221112   1.049   6.228   4.954 -0.4159 -0.5579 -1.5626
 5335SOL    HW321113   1.149   6.277   4.851  0.4563  2.2296  0.4812
 5335SOL    MW421114   1.090   6.294   4.913 -0.7774 -0.2025 -0.8119
 5336SOL     OW21115   5.401   6.089   5.462  0.0436 -0.0087 -0.1591
 5336SOL    HW221116   5.437   6.168   5.503  1.9859 -1.2710  0.7031
 5336SOL    HW321117   5.366   6.039   5.536 -0.1765 -0.4572 -0.5690
 5336SOL    MW421118   5.401   6.093   5.477  0.3658  0.1561 -0.3866
 5337SOL     OW21119   5.616   3.155   1.327  0.1884  0.1671  0.0204
 5337SOL    HW221120   5.535   3.164   1.277 -1.3467 -0.6473  2.2133
 5337SOL    HW321121   5.638   3.062   1.322  1.0703  0.4002 -0.6428
 5337SOL    MW421122   5.608   3.144   1.320  0.1337 -0.3491  0.4103
 5338SOL     OW21123   1.772   0.916   5.540 -0.3756  0.4636 -0.1641
 5338SOL    HW221124   1.845   0.905   5.601 -0.6077  0.0992  0.0551
 5338SOL    HW321125   1.783   1.004   5.504 -1.5149  1.6332  2.1301
 5338SOL    MW421126   1.783   0.926   5.543  0.3745  0.6754  0.0200
 5339SOL     OW21127   4.320   6.409   3.772 -0.3650 -0.6308 -0.3744
 5339SOL    HW221128   4.413   6.415   3.794 -0.3477 -0.2086 -0.5481
 5339SOL    HW321129   4.319   6.395   3.677 -0.4513 -1.9216 -0.2038
 5339SOL    MW421130   4.332   6.408   3.762 -0.5322  0.2309  0.1492
 5340SOL     OW21131   5.678   4.463   2.397 -0.5752 -0.7472 -0.3025
 5340SOL    HW221132   5.718   4.381   2.367  1.6604  0.4824 -0.9317
 5340SOL    HW321133   5.696   4.465   2.491 -0.0467 -0.6963 -0.3992
 5340SOL    MW421134   5.686   4.453   2.406 -0.0292 -0.8606  0.5119
 5341SOL     OW21135   0.445   0.992   4.088 -0.0825  0.0396  0.7776
 5341SOL    HW221136   0.430   1.078   4.128 -1.2887  2.0670 -3.4070
 5341SOL    HW321137   0.537   0.974   4.104  0.5544  2.8137  0.7548
 5341SOL    MW421138   0.455   1.001   4.095 -0.4274 -0.6608  0.2472
 5342SOL     OW21139   4.457   6.052   5.697  0.3218 -0.3501  0.4243
 5342SOL    HW221140   4.411   5.995   5.636 -0.3602 -0.1955  0.7925
 5342SOL    HW321141   4.399   6.126   5.711  1.5978  0.9344 -0.7752
 5342SOL    MW421142   4.444   6.054   5.691 -0.0563 -0.2528  0.0691
 5343SOL     OW21143   2.548   1.237   5.439  0.1789 -0.1181 -0.0950
 5343SOL    HW221144   2.583   1.257   5.352 -0.9461 -0.0255 -0.5369
 5343SOL    HW321145   2.604   1.288   5.499 -0.3884  1.5586 -0.9294
 5343SOL    MW421146   2.560   1.247   5.436  0.6112  0.0839  0.5437
 5344SOL     OW21147   1.471   5.748   2.680  0.2275 -0.4676 -0.3810
 5344SOL    HW221148   1.492   5.841   2.688 -1.9207 -0.0461  1.4936
 5344SOL    HW321149   1.414   5.743   2.604 -0.4129 -0.0587  0.0573
 5344SOL    MW421150   1.466   5.760   2.671  0.0403  0.3020 -0.3832
 5345SOL     OW21151   4.282   5.810   5.046 -0.0604 -0.4258 -0.5361
 5345SOL    HW221152   4.319   5.857   5.120  0.6137  0.2656 -1.2933
 5345SOL    HW321153   4.358   5.779   4.996 -0.4675  0.5868 -1.8378
 5345SOL    MW421154   4.297   5.812   5.049  0.3981 -0.7622 -0.6655
 5346SOL     OW21155   6.101   4.884   2.883 -0.2093  0.2225 -0.0845
 5346SOL    HW221156   6.188   4.902   2.847  0.1780 -2.2619 -0.5772
 5346SOL    HW321157   6.116   4.816   2.949 -2.0206 -2.6892 -2.4040
 5346SOL    MW421158   6.115   4.877   2.887 -0.6045  0.0530 -0.6235
 5347SOL     OW21159   2.340   2.512   0.513  0.0847 -0.0822  0.2747
 5347SOL    HW221160   2.299   2.468   0.439 -0.1051  0.0844  0.2807
 5347SOL    HW321161   2.277   2.578   0.540  1.4692  2.1544 -1.5448
 5347SOL    MW421162   2.326   2.515   0.507 -0.1993 -0.2191 -0.3132
 5348SOL     OW21163   0.079   1.566   1.698 -0.5727 -0.7573 -0.2457
 5348SOL    HW221164  -0.008   1.546   1.732 -0.3964  0.8821  1.2671
 5348SOL    HW321165   0.140   1.531   1.763 -0.1571  0.0323 -0.1960
 5348SOL    MW421166   0.076   1.558   1.711  0.1530 -0.7052 -0.1661
 5349SOL     OW21167   5.101   1.813   3.941 -0.0811  0.5391  0.4851
 5349SOL    HW221168   5.116   1.876   3.870  0.2194  0.1128  0.1637
 5349SOL    HW321169   5.043   1.858   4.001 -2.2136  0.1394 -1.1348
 5349SOL    MW421170   5.095   1.827   3.939  0.0693 -0.3223 -0.0622
 5350SOL     OW21171   5.520   0.703   0.234  0.4619  0.1665 -0.1009
 5350SOL    HW221172   5.593   0.647   0.209  1.8025  2.0898 -0.7403
 5350SOL    HW321173   5.534   0.719   0.328 -0.4630 -1.2579  0.3112
 5350SOL    MW421174   5.532   0.698   0.243 -0.2303 -0.2486  0.3885
 5351SOL     OW21175   4.921   0.527   2.676  0.0706 -0.6956 -0.4798
 5351SOL    HW221176   4.896   0.449   2.626 -0.3119 -0.1410 -1.1794
 5351SOL    HW321177   4.863   0.527   2.752 -1.7568  0.2901 -1.8130
 5351SOL    MW421178   4.910   0.517   2.679  0.1975 -0.3662 -0.2438
 5352SOL     OW21179   5.934   0.455   4.559 -0.2625 -0.0912  0.0826
 5352SOL    HW221180   5.878   0.531   4.577  0.7430  1.0199 -1.2429
 5352SOL    HW321181   5.890   0.410   4.487 -0.5083 -0.4008  0.4218
 5352SOL    MW421182   5.920   0.459   4.552 -0.0215 -0.1850  0.3656
 5353SOL     OW21183   2.236   3.538   3.478 -1.3022  0.1501  0.0764
 5353SOL    HW221184   2.141   3.524   3.472 -1.9438  3.0967  1.4547
 5353SOL    HW321185   2.252   3.612   3.421 -0.0113  0.3922  0.7268
 5353SOL    MW421186   2.226   3.546   3.470  0.1119 -0.0845  0.2334
 5354SOL     OW21187   5.857   5.280   2.024  0.5321  0.2164  0.0979
 5354SOL    HW221188   5.938   5.283   2.076  1.8479 -0.7260 -1.7677
 5354SOL    HW321189   5.853   5.364   1.980  0.1698  0.4773  0.6149
 5354SOL    MW421190   5.867   5.291   2.025  0.4337 -0.5906  0.6841
 5355SOL     OW21191   1.351   1.821   1.742  0.3955  0.1943 -0.7316
 5355SOL    HW221192   1.437   1.841   1.703 -0.0540  5.5364  0.2841
 5355SOL    HW321193   1.290   1.879   1.696 -1.9378 -0.4354  1.3733
 5355SOL    MW421194   1.355   1.831   1.731 -0.3412  0.5258  0.1840
 5356SOL     OW21195   5.601   2.185   0.714 -0.2629  0.5630  0.3078
 5356SOL    HW221196   5.666   2.116   0.726 -0.0536  0.6657 -0.2333
 5356SOL    HW321197   5.532   2.163   0.777 -0.6241 -0.6593 -0.4724
 5356SOL    MW421198   5.600   2.173   0.724  0.1459 -0.1126 -0.9528
 5357SOL     OW21199   2.065   2.724   0.869 -0.6346 -0.1151  0.2830
 5357SOL    HW221200   2.118   2.790   0.915 -1.0884  0.0222  0.6212
 5357SOL    HW321201   2.092   2.641   0.907 -2.0018  0.1068  1.8384
 5357SOL    MW421202   2.076   2.722   0.880 -0.0300 -0.2726  0.0114
 5358SOL     OW21203   5.866   2.991   5.677  0.5017 -0.1373  0.5065
 5358SOL    HW221204   5.949   2.998   5.629  1.5438  2.2751  2.4171
 5358SOL    HW321205   5.890   2.948   5.759  0.1030  1.4432  1.4804
 5358SOL    MW421206   5.880   2.986   5.682  0.9397 -0.2341 -0.3384
 5359SOL     OW21207   5.984   2.006   6.258 -0.5209 -0.2156  0.1587
 5359SOL    HW221208   5.952   1.928   6.304  1.5475 -1.3967 -0.2907
 5359SOL    HW321209   5.922   2.019   6.187 -0.5962 -1.8380 -0.1199
 5359SOL    MW421210   5.972   1.997   6.255 -0.1985 -0.3587  0.0024
 5360SOL     OW21211   0.406   0.510   6.211  0.4774 -0.6222  0.1951
 5360SOL    HW221212   0.434   0.546   6.127  0.2082 -1.9661 -0.5066
 5360SOL    HW321213   0.461   0.554   6.276  0.6144  0.5183 -0.6618
 5360SOL    MW421214   0.417   0.520   6.208  0.9856  0.2257 -0.2191
 5361SOL     OW21215   1.613   5.324   0.238 -0.3045 -0.4364 -0.1817
 5361SOL    HW221216   1.676   5.278   0.183 -0.6857  0.5843 -1.5089
 5361SOL    HW321217   1.577   5.392   0.182 -0.5441  0.7942  1.4031
 5361SOL    MW421218   1.617   5.327   0.223  0.0289 -0.0528  0.5620
 5362SOL     OW21219   4.855   0.948   1.323 -0.3902 -0.1150  0.4006
 5362SOL    HW221220   4.901   0.912   1.398 -0.1873 -1.4159 -0.3183
 5362SOL    HW321221   4.817   0.872   1.279 -1.8272  0.7745  0.0440
 5362SOL    MW421222   4.856   0.933   1.327 -0.5606 -0.8981 -0.6005
 5363SOL     OW21223   4.890   5.944   1.006  0.0449 -0.1908  0.3493
 5363SOL    HW221224   4.932   6.030   1.004 -1.0204  0.3391 -0.5500
 5363SOL    HW321225   4.796   5.964   1.015 -0.6134 -1.0613 -3.1693
 5363SOL    MW421226   4.883   5.958   1.007 -0.0154  0.3507  0.0225
 5364SOL     OW21227   0.974   4.461   5.514  0.1831 -0.3269  0.3862
 5364SOL    HW221228   0.988   4.553   5.492 -0.9109 -0.2567 -0.0959
 5364SOL    HW321229   1.054   4.417   5.487 -0.6894 -0.0972 -3.0245
 5364SOL    MW421230   0.986   4.467   5.508  0.7246  0.5016 -0.2474
 5365SOL     OW21231   2.494   2.846   3.091 -0.6754  0.0231 -0.6918
 5365SOL    HW221232   2.474   2.924   3.039 -0.1406  0.8576  0.2867
 5365SOL    HW321233   2.576   2.814   3.054 -0.5843  0.2862 -0.7254
 5365SOL    MW421234   2.502   2.852   3.080 -0.0148  0.2795  0.8416
 5366SOL     OW21235   2.436   5.618   1.340 -0.3678  0.8215 -0.5367
 5366SOL    HW221236   2.388   5.638   1.259 -0.4555  2.4099 -0.1199
 5366SOL    HW321237   2.371   5.581   1.398 -1.1236  2.7804 -0.0451
 5366SOL    MW421238   2.421   5.616   1.337 -0.0382 -0.0706  0.7856
 5367SOL     OW21239   5.607   4.562   2.907 -0.2634 -0.0165  0.0568
 5367SOL    HW221240   5.539   4.511   2.951  0.2007  0.3907  1.2998
 5367SOL    HW321241   5.681   4.559   2.967  1.9163 -2.8731 -2.4853
 5367SOL    MW421242   5.608   4.555   2.921  0.1146 -0.0736 -0.1649
 5368SOL     OW21243   3.062   1.224   2.134 -0.2739 -0.4854 -0.1717
 5368SOL    HW221244   3.144   1.186   2.102 -0.9672 -0.2643 -2.3143
 5368SOL    HW321245   3.032   1.163   2.202  0.0575 -2.2951 -1.5819
 5368SOL    MW421246   3.069   1.211   2.139 -0.4531 -0.7681  0.2505
 5369SOL     OW21247   6.395   2.674   3.036 -0.8240 -0.2203  0.2934
 5369SOL    HW221248   6.427   2.725   3.110  0.0959  0.6596 -0.6841
 5369SOL    HW321249   6.410   2.583   3.061  1.9891  0.1284  0.1198
 5369SOL    MW421250   6.401   2.669   3.049 -0.1320  0.2232 -0.0014
 5370SOL     OW21251   4.242   0.119   1.628  0.0696 -0.2103 -0.1495
 5370SOL    HW221252   4.223   0.164   1.710  0.7348 -1.1894  0.5603
 5370SOL    HW321253   4.240   0.026   1.650  0.0629 -0.5009 -1.2929
 5370SOL    MW421254   4.239   0.113   1.642  0.8653 -0.3805  0.7467
 5371SOL     OW21255   1.976   3.228   5.719  0.3562  0.1689  0.0071
 5371SOL    HW221256   1.901   3.172   5.700 -2.2745  2.6061  2.3417
 5371SOL    HW321257   1.980   3.288   5.644 -0.4666  0.4602  0.1954
 5371SOL    MW421258   1.967   3.228   5.706 -0.4009  0.1135  0.1244
 5372SOL     OW21259   1.980   5.728   0.518 -0.3748 -0.0252 -0.1719
 5372SOL    HW221260   2.004   5.708   0.608 -0.3899 -0.7077 -0.3131
 5372SOL    HW321261   2.015   5.654   0.467 -1.3277 -0.2069 -0.5876
 5372SOL    MW421262   1.988   5.716   0.523  0.3318  0.0030 -0.5143
 5373SOL     OW21263   1.713   2.931   2.756 -0.2581 -0.4472  0.3207
 5373SOL    HW221264   1.728   2.940   2.850  0.7524 -1.1974  0.2420
 5373SOL    HW321265   1.700   3.021   2.725 -0.1391 -0.1564  1.0979
 5373SOL    MW421266   1.713   2.944   2.765  0.0970  0.6733  0.0213
 5374SOL     OW21267   4.247   3.137   1.723  0.1084 -0.5106  0.2660
 5374SOL    HW221268   4.246   3.229   1.699  0.0430 -0.6212 -0.1703
 5374SOL    HW321269   4.325   3.126   1.777 -0.7585  0.1375  1.7142
 5374SOL    MW421270   4.257   3.147   1.727  0.2506 -0.0932 -0.1695
 5375SOL     OW21271   3.349   6.415   2.943 -0.2711 -0.0272  0.1746
 5375SOL    HW221272   3.269   6.389   2.899 -0.6232  2.1190 -0.5402
 5375SOL    HW321273   3.332   6.400   3.036 -1.7785  1.0495  0.0962
 5375SOL    MW421274   3.336   6.409   2.949  0.2799 -0.7386  0.7415
 5376SOL     OW21275   3.135   2.129   3.651  0.1051  0.0906 -0.0505
 5376SOL    HW221276   3.224   2.143   3.620 -0.0990 -0.2887 -0.8418
 5376SOL    HW321277   3.079   2.161   3.581 -0.3646 -1.3782 -0.3823
 5376SOL    MW421278   3.139   2.135   3.638 -0.5512  0.5536 -0.3145
 5377SOL     OW21279   4.424   3.461   5.908  0.3495  0.2230 -0.3478
 5377SOL    HW221280   4.368   3.404   5.960 -2.8739  1.9509 -1.6725
 5377SOL    HW321281   4.474   3.401   5.852 -0.4693 -1.3838  0.5776
 5377SOL    MW421282   4.423   3.446   5.908  0.0156  0.2244  0.5902
 5378SOL     OW21283   4.761   6.341   0.509 -0.0876  0.2888 -0.1424
 5378SOL    HW221284   4.755   6.356   0.414 -0.5783  1.1015  0.0081
 5378SOL    HW321285   4.852   6.318   0.524  0.4426  1.9672 -0.5668
 5378SOL    MW421286   4.772   6.340   0.498 -0.4567 -0.8889  0.0081
 5379SOL     OW21287   4.204   4.403   1.673  0.2318  0.4387  0.3108
 5379SOL    HW221288   4.134   4.468   1.665 -0.4600 -0.4711 -2.1148
 5379SOL    HW321289   4.260   4.436   1.744 -0.4521  3.3148 -0.3394
 5379SOL    MW421290   4.202   4.416   1.681 -0.6900 -0.1342  0.1669
 5380SOL     OW21291   3.835   2.393   2.782 -0.5634 -0.1700 -0.0901
 5380SOL    HW221292   3.834   2.371   2.689  1.5391  3.0154 -1.0456
 5380SOL    HW321293   3.754   2.441   2.796 -1.0082 -0.8774 -0.1682
 5380SOL    MW421294   3.824   2.396   2.771  0.3121  0.1013  0.2719
 5381SOL     OW21295   2.482   3.385   1.042 -0.7546 -0.0143 -0.1864
 5381SOL    HW221296   2.440   3.400   0.957 -1.4169 -1.5535 -0.1564
 5381SOL    HW321297   2.538   3.309   1.028 -1.7703 -1.0135  1.0330
 5381SOL    MW421298   2.484   3.377   1.029  0.4393 -0.3478 -0.1324
 5382SOL     OW21299   2.153   4.701   6.090 -0.3722 -0.0919  0.1651
 5382SOL    HW221300   2.105   4.641   6.147  0.6912  0.0626  1.2367
 5382SOL    HW321301   2.146   4.786   6.133 -0.8567  0.3418 -0.7372
 5382SOL    MW421302   2.146   4.705   6.103 -0.5935 -0.1182  0.4629
 5383SOL     OW21303   0.752   6.315   3.090 -0.4281  0.3844 -0.4684
 5383SOL    HW221304   0.741   6.409   3.078  0.9003  0.4480 -1.3024
 5383SOL    HW321305   0.765   6.280   3.002  0.5758 -0.3698 -0.0362
 5383SOL    MW421306   0.752   6.323   3.077 -0.5143 -0.0843  0.2245
 5384SOL     OW21307   4.347   6.286   0.284  0.5796  0.5091  0.5871
 5384SOL    HW221308   4.291   6.300   0.208 -0.5647  0.7979  1.4508
 5384SOL    HW321309   4.370   6.374   0.313  1.4766  0.3911  0.2539
 5384SOL    MW421310   4.343   6.299   0.278  0.0518 -0.7968 -0.5320
 5385SOL     OW21311   5.824   5.745   6.017  0.0882  0.3078 -0.4091
 5385SOL    HW221312   5.819   5.654   5.988  0.1592  0.3650 -0.6011
 5385SOL    HW321313   5.916   5.759   6.038 -0.0115  0.1775  0.1385
 5385SOL    MW421314   5.835   5.735   6.016  0.0284  0.0336 -0.5120
 5386SOL     OW21315   6.394   1.056   0.683  0.1064  0.0037 -0.0538
 5386SOL    HW221316   6.450   1.083   0.610  1.0059 -1.5911  0.0022
 5386SOL    HW321317   6.313   1.027   0.641  0.3961 -0.3454 -0.3868
 5386SOL    MW421318   6.391   1.056   0.667 -0.2532  0.2177 -0.0540
 5387SOL     OW21319   4.839   2.521   2.726 -0.6971  0.3536 -1.0032
 5387SOL    HW221320   4.834   2.617   2.729  0.5617  0.4340 -0.9137
 5387SOL    HW321321   4.932   2.503   2.710 -0.9612 -0.8521 -1.2423
 5387SOL    MW421322   4.851   2.531   2.724 -0.0199 -0.3014  0.1014
 5388SOL     OW21323   4.336   2.636   5.788  1.1940  0.2609  0.2447
 5388SOL    HW221324   4.407   2.683   5.744  0.9865  0.9608  0.6296
 5388SOL    HW321325   4.346   2.659   5.881  0.7012  0.0622  0.3527
 5388SOL    MW421326   4.347   2.645   5.794 -0.3911  0.0038  0.0619
 5389SOL     OW21327   1.564   2.172   4.294  0.3148 -0.4145  0.1883
 5389SOL    HW221328   1.570   2.247   4.353 -0.4071  0.4288 -0.7600
 5389SOL    HW321329   1.534   2.210   4.211 -1.8181 -1.9757  0.1682
 5389SOL    MW421330   1.560   2.187   4.291 -0.5378 -0.1215  0.2740
 5390SOL     OW21331   4.255   6.029   1.006 -0.6375  0.7641 -0.5657
 5390SOL    HW221332   4.194   6.060   1.073 -1.5051 -1.2476 -0.3719
 5390SOL    HW321333   4.330   6.088   1.014 -0.3175  0.0821  2.8140
 5390SOL    MW421334   4.257   6.041   1.016  0.4137 -0.1049 -0.8262
 5391SOL     OW21335   4.691   5.355   5.354 -0.5385 -0.5537  0.9891
 5391SOL    HW221336   4.664   5.430   5.302 -1.1516 -0.3716  1.5632
 5391SOL    HW321337   4.787   5.359   5.354 -0.5781  0.6837  1.6606
 5391SOL    MW421338   4.700   5.365   5.347  0.3761  0.3752  0.0539
 5392SOL     OW21339   5.954   6.379   3.027  0.3414  0.0307 -0.0463
 5392SOL    HW221340   5.984   6.323   2.955 -0.3398 -2.0009  1.1728
 5392SOL    HW321341   6.015   6.362   3.098  1.2414  2.3238 -0.2040
 5392SOL    MW421342   5.966   6.369   3.027  0.0246  0.1130 -0.0067
 5393SOL     OW21343   3.210   3.375   0.390  0.0699  0.3842 -0.1355
 5393SOL    HW221344   3.234   3.293   0.346 -1.2174 -0.2021  0.1977
 5393SOL    HW321345   3.293   3.420   0.404  0.6460 -0.0047 -1.9954
 5393SOL    MW421346   3.224   3.370   0.386 -0.1802  0.2422 -0.0880
 5394SOL     OW21347   1.922   3.356   6.321 -0.2627 -0.0548 -0.0736
 5394SOL    HW221348   1.965   3.407   6.252 -0.0342 -0.3843 -0.1824
 5394SOL    HW321349   1.969   3.378   6.401 -0.6968  0.5267  0.0236
 5394SOL    MW421350   1.934   3.366   6.322 -0.2357 -0.5126 -0.1867
 5395SOL     OW21351   1.705   2.408   4.012 -0.1351  0.4792  0.1516
 5395SOL    HW221352   1.792   2.445   4.024  0.4259 -0.3862 -1.0349
 5395SOL    HW321353   1.647   2.466   4.061  1.3941 -0.5238  3.4347
 5395SOL    MW421354   1.709   2.420   4.020 -0.0533  0.0593  0.1493
 5396SOL     OW21355   0.807   1.541   3.765  0.4439  0.8101 -0.4462
 5396SOL    HW221356   0.758   1.475   3.814 -1.7828  2.5003 -0.2044
 5396SOL    HW321357   0.867   1.492   3.709 -0.6128 -1.3488  0.2394
 5396SOL    MW421358   0.809   1.526   3.764 -0.0664 -0.1918 -0.0996
 5397SOL     OW21359   5.279   3.781   3.090  0.5750 -0.3927  0.5442
 5397SOL    HW221360   5.367   3.817   3.101  0.2919  0.5249 -0.1179
 5397SOL    HW321361   5.223   3.838   3.143  0.3816 -1.0402  1.0508
 5397SOL    MW421362   5.283   3.793   3.099 -0.0652 -0.2394 -0.3218
 5398SOL     OW21363   5.033   2.676   3.839  0.5102  0.3878 -0.0671
 5398SOL    HW221364   5.028   2.662   3.744 -1.3559  2.4023 -0.3389
 5398SOL    HW321365   5.045   2.771   3.848  0.6192  0.2296  1.7186
 5398SOL    MW421366   5.034   2.687   3.827 -0.1118  0.5005 -0.2681
 5399SOL     OW21367   3.833   2.717   1.275 -0.5264 -0.2176  0.6664
 5399SOL    HW221368   3.897   2.683   1.212 -1.1489  0.1581 -0.1931
 5399SOL    HW321369   3.808   2.802   1.239 -0.6240  0.1711  1.6269
 5399SOL    MW421370   3.838   2.724   1.262  0.2855  0.5813  0.3532
 5400SOL     OW21371   5.840   5.364   4.280 -0.0507  0.0823  0.1372
 5400SOL    HW221372   5.923   5.349   4.325 -0.1190  0.1376  0.2822
 5400SOL    HW321373   5.804   5.442   4.322 -0.4725 -0.3020  0.5039
 5400SOL    MW421374   5.846   5.372   4.291  0.0620 -0.0415  0.4493
 5401SOL     OW21375   0.075   5.396   3.853  0.2952  0.3241  0.2968
 5401SOL    HW221376   0.027   5.333   3.798 -0.8007 -0.4078  1.9983
 5401SOL    HW321377   0.044   5.378   3.942  0.4630  2.8413  0.9313
 5401SOL    MW421378   0.064   5.385   3.857  0.0354 -0.0456  0.1186
 5402SOL     OW21379   2.300   3.552   6.308  0.1803 -0.2293 -0.1272
 5402SOL    HW221380   2.303   3.458   6.325 -1.2690  0.1114  2.4635
 5402SOL    HW321381   2.383   3.571   6.263  1.6695 -2.3257  1.5463
 5402SOL    MW421382   2.311   3.542   6.304 -0.4396  0.1908  0.1640
 5403SOL     OW21383   4.978   0.137   0.194 -0.2822 -0.3483 -0.4927
 5403SOL    HW221384   4.940   0.184   0.119 -0.6648  0.9521  0.4747
 5403SOL    HW321385   4.986   0.204   0.262 -0.4182 -1.6098  0.8033
 5403SOL    MW421386   4.974   0.152   0.193 -0.6643  0.5256  0.6149
 5404SOL     OW21387   0.691   3.116   5.514  0.3253  0.0639  0.2343
 5404SOL    HW221388   0.641   3.180   5.564 -2.0495 -1.2481 -0.3086
 5404SOL    HW321389   0.644   3.109   5.430  0.3589 -2.4908  0.3542
 5404SOL    MW421390   0.678   3.123   5.509 -0.2624 -0.9163 -0.0879
 5405SOL     OW21391   5.503   6.161   3.534 -0.0316  0.4068  0.5308
 5405SOL    HW221392   5.583   6.125   3.495 -0.5589  0.5149 -0.7033
 5405SOL    HW321393   5.494   6.115   3.617  0.9238 -0.1263  0.3566
 5405SOL    MW421394   5.512   6.150   3.540  0.0454  0.2157 -0.7281
 5406SOL     OW21395   5.517   4.976   0.268 -0.1597  0.4313 -0.5499
 5406SOL    HW221396   5.446   4.961   0.330  0.4555 -0.8374 -0.1036
 5406SOL    HW321397   5.594   4.939   0.312  0.4742  0.3821 -1.6761
 5406SOL    MW421398   5.518   4.969   0.282  0.0487 -0.2996 -0.2145
 5407SOL     OW21399   3.695   3.569   5.116  0.3112 -0.6645 -0.2674
 5407SOL    HW221400   3.725   3.578   5.026 -0.1788 -0.1474 -0.3820
 5407SOL    HW321401   3.768   3.525   5.161  1.2440  0.5543 -0.5383
 5407SOL    MW421402   3.709   3.564   5.110  0.7911 -0.4040  0.1495
 5408SOL     OW21403   2.319   0.098   2.438  0.3655 -0.0535 -0.1625
 5408SOL    HW221404   2.289   0.009   2.457  0.4801  0.1682  1.1399
 5408SOL    HW321405   2.387   0.087   2.371 -1.0364 -0.7545 -1.5436
 5408SOL    MW421406   2.324   0.085   2.432  0.1375 -0.2709  0.6293
 5409SOL     OW21407   4.380   1.305   1.077  0.4664  0.1407 -0.4013
 5409SOL    HW221408   4.372   1.216   1.043  0.2214  0.1412 -0.3469
 5409SOL    HW321409   4.461   1.338   1.038  0.4117 -0.0082 -0.6408
 5409SOL    MW421410   4.390   1.297   1.067  0.0790 -0.1523 -0.2641
 5410SOL     OW21411   2.642   2.502   3.967  0.0294 -0.1118  0.0924
 5410SOL    HW221412   2.577   2.467   3.905  0.4531  0.6201 -0.7805
 5410SOL    HW321413   2.701   2.428   3.983  1.1870  0.2418 -2.0960
 5410SOL    MW421414   2.641   2.487   3.961  0.5153 -0.7219 -0.0027
 5411SOL     OW21415   1.377   2.636   4.964 -0.1853  0.1969 -0.4960
 5411SOL    HW221416   1.313   2.660   5.031  2.6071 -1.3706  3.0869
 5411SOL    HW321417   1.339   2.560   4.920 -1.8889  0.9838 -0.4713
 5411SOL    MW421418   1.364   2.629   4.967  0.0495 -0.0859  0.4075
 5412SOL     OW21419   5.210   0.423   2.889  0.1680  0.7333  0.2951
 5412SOL    HW221420   5.294   0.389   2.917 -0.1916  1.4011  2.3765
 5412SOL    HW321421   5.216   0.429   2.794  1.5900 -1.4346  0.2054
 5412SOL    MW421422   5.222   0.419   2.880  0.5456 -0.9618  0.3160
 5413SOL     OW21423   4.516   4.184   0.635 -0.1872 -0.3094 -0.5023
 5413SOL    HW221424   4.533   4.115   0.571 -0.6433  0.7590 -1.8104
 5413SOL    HW321425   4.422   4.177   0.654  0.1158 -1.2393  0.8327
 5413SOL    MW421426   4.506   4.174   0.629  0.2930 -0.0222 -0.6808
 5414SOL     OW21427   5.996   5.685   1.457 -0.5418 -0.1344 -0.4027
 5414SOL    HW221428   5.999   5.607   1.513  0.2261  0.0941 -0.1105
 5414SOL    HW321429   5.933   5.743   1.501  1.0781  0.6199  1.0319
 5414SOL    MW421430   5.988   5.682   1.470 -0.6167  0.0332  0.2619
 5415SOL     OW21431   4.234   2.315   0.516 -0.1334  0.1508 -0.3643
 5415SOL    HW221432   4.310   2.326   0.572  0.3551 -1.2013 -0.7131
 5415SOL    HW321433   4.181   2.248   0.560  0.1620 -0.7800 -1.3845
 5415SOL    MW421434   4.237   2.307   0.529  0.0782 -0.5128 -0.4928
 5416SOL     OW21435   5.429   5.232   5.400  0.0796 -0.3192  0.2811
 5416SOL    HW221436   5.425   5.271   5.313  0.2545  0.0736  0.4481
 5416SOL    HW321437   5.362   5.278   5.450 -0.3068 -0.8351  0.2372
 5416SOL    MW421438   5.420   5.243   5.395 -0.3076  0.4580  0.0423
 5417SOL     OW21439   5.666   1.243   4.202 -0.1509  0.2103 -0.3417
 5417SOL    HW221440   5.735   1.218   4.141 -1.7790 -0.7299 -1.8835
 5417SOL    HW321441   5.672   1.338   4.208  2.4644  0.0723  1.1062
 5417SOL    MW421442   5.676   1.252   4.195 -0.5890  0.1698  0.4110
 5418SOL     OW21443   1.137   4.515   0.350  0.2600  0.3137 -0.1673
 5418SOL    HW221444   1.120   4.576   0.422 -0.2559  2.8380 -2.2491
 5418SOL    HW321445   1.211   4.554   0.304  2.1937 -2.5551  0.2904
 5418SOL    MW421446   1.144   4.528   0.353 -0.5687  0.2340  0.3650
 5419SOL     OW21447   2.193   3.347   0.997  0.8080  0.3462  0.3116
 5419SOL    HW221448   2.109   3.355   1.042  0.5011  2.2388 -0.4902
 5419SOL    HW321449   2.258   3.354   1.068  0.3299 -1.2022  0.9397
 5419SOL    MW421450   2.191   3.349   1.013 -0.1866 -0.5876  0.3410
 5420SOL     OW21451   2.783   2.979   0.537 -0.6593  0.0437  0.3812
 5420SOL    HW221452   2.699   3.016   0.509  0.4706  0.6238 -2.6681
 5420SOL    HW321453   2.829   3.052   0.579 -0.4507  0.6927 -0.9281
 5420SOL    MW421454   2.778   2.994   0.539  0.1488  0.0710  0.4137
 5421SOL     OW21455   3.269   3.940   2.612 -0.0565  0.4424  0.6240
 5421SOL    HW221456   3.247   4.014   2.669  0.6929  0.4731  0.8878
 5421SOL    HW321457   3.273   3.977   2.524  0.9797  0.8672  0.8393
 5421SOL    MW421458   3.267   3.954   2.608  0.5719  0.4051  0.0005
 5422SOL     OW21459   3.499   6.159   4.136 -0.3954  0.0156  0.4522
 5422SOL    HW221460   3.594   6.167   4.141 -0.5407  0.9241  2.7899
 5422SOL    HW321461   3.474   6.116   4.217 -1.9072 -1.6872 -0.8203
 5422SOL    MW421462   3.508   6.155   4.147 -0.1904 -0.1948 -0.2051
 5423SOL     OW21463   3.273   2.655   2.062 -0.2210  0.2399  0.3713
 5423SOL    HW221464   3.190   2.702   2.056  0.3404  1.2050  0.0915
 5423SOL    HW321465   3.279   2.630   2.154 -1.2544 -0.6700  0.2240
 5423SOL    MW421466   3.263   2.658   2.073  0.0074 -0.0098 -0.3926
 5424SOL     OW21467   6.343   1.585   2.220  0.6123 -0.6278 -0.1067
 5424SOL    HW221468   6.393   1.592   2.139  1.3775 -1.1959  0.3111
 5424SOL    HW321469   6.306   1.497   2.217 -1.6147  0.2606 -1.1078
 5424SOL    MW421470   6.344   1.575   2.209 -0.3070  0.2688 -0.7184
 5425SOL     OW21471   4.580   1.030   1.076  0.6121 -0.2672  0.0656
 5425SOL    HW221472   4.637   1.095   1.117 -0.0428 -0.1498  0.8140
 5425SOL    HW321473   4.634   0.992   1.006  1.3006  0.4501  0.1884
 5425SOL    MW421474   4.595   1.033   1.072 -0.3150 -0.5996  0.4949
 5426SOL     OW21475   4.653   5.258   0.870 -0.4625  0.3626  0.0560
 5426SOL    HW221476   4.623   5.234   0.958  1.0951 -1.6955  0.0971
 5426SOL    HW321477   4.745   5.281   0.881  0.4464 -2.2419 -1.3059
 5426SOL    MW421478   4.661   5.258   0.883 -0.0457 -0.1214 -0.1268
 5427SOL     OW21479   4.868   3.054   1.473 -0.1936 -0.2952 -0.1989
 5427SOL    HW221480   4.842   3.142   1.500  0.6762  0.1181 -0.6852
 5427SOL    HW321481   4.962   3.051   1.488 -0.2037 -1.1264 -0.2491
 5427SOL    MW421482   4.877   3.065   1.479 -0.3081 -0.2949  0.3225
 5428SOL     OW21483   6.392   6.086   4.218 -0.1833  0.1830  0.8475
 5428SOL    HW221484   6.459   6.101   4.285 -0.0791 -0.6500  0.9479
 5428SOL    HW321485   6.332   6.024   4.259  0.6757 -1.4926 -0.3331
 5428SOL    MW421486   6.393   6.080   4.232 -0.0794  0.3058 -0.3911
 5429SOL     OW21487   0.482   4.460   0.120  0.3944  0.0356  0.6532
 5429SOL    HW221488   0.437   4.494   0.198 -2.1395 -1.5666  0.0010
 5429SOL    HW321489   0.477   4.531   0.057  2.4708  1.3553  1.8600
 5429SOL    MW421490   0.475   4.474   0.122  0.2480  0.3979  0.1765
 5430SOL     OW21491   0.798   0.709   5.645  0.6413  0.0549  0.2310
 5430SOL    HW221492   0.836   0.756   5.719  0.9836 -0.8366  0.6329
 5430SOL    HW321493   0.808   0.617   5.667 -0.2155 -0.2130 -0.4472
 5430SOL    MW421494   0.805   0.703   5.657 -0.5974 -0.2584 -0.4291
 5431SOL     OW21495   1.377   6.033   4.489  0.1892  0.0160 -0.4572
 5431SOL    HW221496   1.351   6.125   4.492  0.6380  0.1507 -0.6530
 5431SOL    HW321497   1.324   5.991   4.557  0.1105  0.4483 -0.2466
 5431SOL    MW421498   1.367   6.039   4.498  0.1192  0.1036 -0.1413
 5432SOL     OW21499   2.793   6.400   0.974 -0.2586 -0.1162  0.1229
 5432SOL    HW221500   2.835   6.467   0.921 -0.5316 -0.2451 -0.2595
 5432SOL    HW321501   2.780   6.441   1.059  0.6074 -0.0648  0.2371
 5432SOL    MW421502   2.797   6.414   0.978 -0.0307  0.0080 -0.0270
 5433SOL     OW21503   1.218   6.230   5.168 -0.5077  0.2619 -0.0714
 5433SOL    HW221504   1.133   6.191   5.147  0.0731 -0.7030 -0.7305
 5433SOL    HW321505   1.260   6.244   5.084  1.0125 -1.6952  0.2725
 5433SOL    MW421506   1.213   6.226   5.154 -0.2775 -0.2037  0.8582
 5434SOL     OW21507   3.772   5.539   1.399 -0.2207  0.1921  0.0994
 5434SOL    HW221508   3.758   5.455   1.443  0.4695 -0.0648 -0.1652
 5434SOL    HW321509   3.865   5.540   1.378 -0.6239  0.0324 -1.9169
 5434SOL    MW421510   3.782   5.528   1.402 -0.4234  0.4377 -0.0739
 5435SOL     OW21511   5.528   2.168   1.801 -0.7300  0.1914  0.1355
 5435SOL    HW221512   5.533   2.152   1.895  1.3382  2.9792  0.6282
 5435SOL    HW321513   5.582   2.098   1.762  0.0662  0.1900  1.2045
 5435SOL    MW421514   5.536   2.156   1.808  0.0421 -0.5876  0.0094
 5436SOL     OW21515   4.450   4.256   5.192 -0.9183 -0.2588 -0.0876
 5436SOL    HW221516   4.516   4.190   5.171 -2.2090 -1.2350 -1.3003
 5436SOL    HW321517   4.498   4.325   5.237  0.6089 -1.6808  0.5571
 5436SOL    MW421518   4.465   4.257   5.195 -0.4630 -0.6347 -0.1498
 5437SOL     OW21519   6.239   2.834   1.877  0.7798  0.2684 -0.2545
 5437SOL    HW221520   6.216   2.774   1.948 -0.5737  0.9791 -0.0662
 5437SOL    HW321521   6.331   2.855   1.893  1.3536 -1.8933 -0.4666
 5437SOL    MW421522   6.248   2.829   1.889 -0.0724  0.3617 -0.2603
 5438SOL     OW21523   1.706   3.239   6.059 -0.0453 -0.5747  0.0052
 5438SOL    HW221524   1.679   3.158   6.015 -3.0024  0.8361 -0.9775
 5438SOL    HW321525   1.697   3.220   6.152 -1.2649 -1.2431 -0.2305
 5438SOL    MW421526   1.701   3.226   6.065 -0.6005 -0.0933  0.0559
 5439SOL     OW21527   4.676   1.766   5.995  0.4080  0.1509  0.0055
 5439SOL    HW221528   4.751   1.808   5.952 -1.0234  1.5292 -1.2202
 5439SOL    HW321529   4.659   1.821   6.071 -0.6006  1.0559 -0.8426
 5439SOL    MW421530   4.684   1.779   5.999 -0.4202 -0.3970  0.2679
 5440SOL     OW21531   2.589   5.251   4.879 -0.2547 -0.0835  0.0394
 5440SOL    HW221532   2.577   5.185   4.947 -0.5479  1.5444  1.6424
 5440SOL    HW321533   2.507   5.301   4.879 -0.2158  0.0237 -1.4429
 5440SOL    MW421534   2.576   5.249   4.888  0.2855 -1.0982  0.2580
 5441SOL     OW21535   6.048   3.169   3.521  0.3157 -0.0148 -0.5279
 5441SOL    HW221536   6.093   3.148   3.439  1.0814 -0.7473  0.0682
 5441SOL    HW321537   6.118   3.186   3.584 -0.1312 -2.6013  0.7987
 5441SOL    MW421538   6.063   3.168   3.519 -0.0904  0.0323  0.2744
 5442SOL     OW21539   1.269   3.388   0.362  0.1094  0.4154 -0.1687
 5442SOL    HW221540   1.321   3.345   0.429  1.4259  0.4907 -1.1034
 5442SOL    HW321541   1.184   3.402   0.403 -0.5303 -3.3211  0.1015
 5442SOL    MW421542   1.265   3.384   0.376 -0.0272  0.0442  0.4834
 5443SOL     OW21543   2.386   4.343   5.256 -0.4480  0.2333 -0.1933
 5443SOL    HW221544   2.321   4.327   5.187  0.0236  0.2916 -0.6597
 5443SOL    HW321545   2.456   4.281   5.238 -1.3102 -1.3593  1.5871
 5443SOL    MW421546   2.387   4.333   5.245 -0.1703  0.2889 -0.2304
 5444SOL     OW21547   2.966   1.834   4.939  0.4134 -0.3726  0.5171
 5444SOL    HW221548   3.058   1.830   4.966  0.5012  1.8653  0.6886
 5444SOL    HW321549   2.954   1.754   4.887  1.9626 -1.5765  1.8687
 5444SOL    MW421550   2.977   1.823   4.936 -0.5128  0.1180 -0.0547
 5445SOL     OW21551   3.880   3.129   1.441  0.0731 -0.0650  0.4729
 5445SOL    HW221552   3.853   3.112   1.531  1.6756 -0.0199  1.0021
 5445SOL    HW321553   3.877   3.225   1.432 -1.6354 -0.1434 -0.0645
 5445SOL    MW421554   3.876   3.140   1.451 -0.1145 -0.2656  0.0908
 5446SOL     OW21555   2.869   5.363   5.484 -0.8081  0.2334  0.4390
 5446SOL    HW221556   2.810   5.348   5.410  0.5810 -0.1189 -0.6538
 5446SOL    HW321557   2.957   5.362   5.445 -0.0848  1.0565  1.9509
 5446SOL    MW421558   2.873   5.361   5.469  0.5288  0.5983 -0.2117
 5447SOL     OW21559   5.781   4.113   5.408  0.2329 -0.1987 -0.0385
 5447SOL    HW221560   5.795   4.092   5.315  0.0188 -1.0465  0.1081
 5447SOL    HW321561   5.869   4.131   5.442  0.4908 -1.2721 -0.0931
 5447SOL    MW421562   5.795   4.112   5.400  0.5984 -0.1739  0.0180
 5448SOL     OW21563   2.987   3.845   3.986 -1.2454 -0.2820 -0.1225
 5448SOL    HW221564   2.966   3.782   3.917 -1.2075  0.3667 -0.7478
 5448SOL    HW321565   3.022   3.921   3.938  0.8872 -0.6431  0.7500
 5448SOL    MW421566   2.989   3.847   3.970 -0.1476 -0.6394 -0.4544
 5449SOL     OW21567   5.684   2.997   2.142 -0.7470  0.2059  0.0384
 5449SOL    HW221568   5.646   2.948   2.215  0.1505  2.1286  1.9224
 5449SOL    HW321569   5.721   3.076   2.183 -1.8505  2.3447 -2.7376
 5449SOL    MW421570   5.684   3.001   2.157 -0.2627 -0.4180  0.1411
 5450SOL     OW21571   1.182   0.530   1.336  0.3034 -0.0595 -0.3751
 5450SOL    HW221572   1.140   0.610   1.367  1.7999  0.3644  0.6055
 5450SOL    HW321573   1.112   0.464   1.341 -1.2786  1.3324 -2.2261
 5450SOL    MW421574   1.167   0.532   1.341 -0.2555 -0.6598  0.1308
 5451SOL     OW21575   1.740   2.678   1.128  0.0904 -0.7084 -0.4128
 5451SOL    HW221576   1.681   2.697   1.201  0.6269 -1.2895  0.1754
 5451SOL    HW321577   1.712   2.739   1.059 -0.5018 -0.2423  0.2227
 5451SOL    MW421578   1.728   2.689   1.128 -0.3646 -0.0804 -0.0432
 5452SOL     OW21579   5.103   6.186   6.006 -0.1904 -0.7810 -0.3187
 5452SOL    HW221580   5.197   6.171   6.001 -0.2333 -0.9785 -0.5932
 5452SOL    HW321581   5.067   6.101   6.030 -0.4906 -1.3206 -2.4458
 5452SOL    MW421582   5.111   6.173   6.008  0.1417 -0.0798 -0.3024
 5453SOL     OW21583   4.886   5.706   1.716 -0.0056  0.2502 -1.0001
 5453SOL    HW221584   4.905   5.648   1.790 -0.7948  1.8752  0.5332
 5453SOL    HW321585   4.921   5.659   1.640  1.4841 -1.1549  0.4641
 5453SOL    MW421586   4.893   5.692   1.716  0.1087  0.5258  0.1694
 5454SOL     OW21587   0.472   4.813   3.856  0.5066  0.1507  0.0414
 5454SOL    HW221588   0.426   4.729   3.846 -1.0850  0.8623  0.9732
 5454SOL    HW321589   0.499   4.837   3.768 -1.0977 -0.2306 -0.5849
 5454SOL    MW421590   0.469   4.805   3.843  0.4307  0.2996 -0.9589
 5455SOL     OW21591   1.352   3.820   0.361  0.0027 -0.1339  0.0266
 5455SOL    HW221592   1.283   3.776   0.310  0.8545  0.0577 -1.3529
 5455SOL    HW321593   1.431   3.806   0.309  1.2258 -1.2012  2.0606
 5455SOL    MW421594   1.353   3.812   0.347  0.4457  0.3010  0.4617
 5456SOL     OW21595   3.472   2.370   0.061 -0.1729 -0.4056 -0.2395
 5456SOL    HW221596   3.378   2.389   0.057  0.0281  1.1540  1.3792
 5456SOL    HW321597   3.512   2.429  -0.003 -0.1925 -0.2561 -0.1141
 5456SOL    MW421598   3.465   2.380   0.052  0.3983 -0.1575 -0.2155
 5457SOL     OW21599   0.371   2.835   1.977 -0.0988  0.2698 -0.2613
 5457SOL    HW221600   0.365   2.755   2.031 -0.6742  0.6345  0.2324
 5457SOL    HW321601   0.375   2.803   1.887 -0.0914 -0.3258 -0.0557
 5457SOL    MW421602   0.370   2.820   1.972 -0.2357 -0.3733 -0.2743
 5458SOL     OW21603   5.406   4.621   3.849  0.6249  0.1363  0.3019
 5458SOL    HW221604   5.472   4.690   3.853  1.4271 -0.6199  0.5494
 5458SOL    HW321605   5.357   4.630   3.930  0.0840  1.0085 -0.1011
 5458SOL    MW421606   5.408   4.631   3.860 -0.2745  0.0467  0.0333
 5459SOL     OW21607   1.072   4.980   6.072 -0.1594  0.2913  0.0029
 5459SOL    HW221608   1.095   5.071   6.088  0.1017  0.1589  0.4221
 5459SOL    HW321609   1.073   4.970   5.977 -2.6849  1.3573 -0.1983
 5459SOL    MW421610   1.076   4.991   6.062 -0.0838 -0.0849 -0.1978
 5460SOL     OW21611   3.497   5.487   2.151 -0.1182  0.4599 -0.1896
 5460SOL    HW221612   3.518   5.395   2.164  1.7635  0.4925 -2.4278
 5460SOL    HW321613   3.404   5.494   2.175 -0.1932 -1.8840  0.4638
 5460SOL    MW421614   3.487   5.476   2.156  0.6273 -0.3157  0.1478
 5461SOL     OW21615   4.737   0.042   5.321 -0.0047 -0.0479 -0.8893
 5461SOL    HW221616   4.722  -0.031   5.381  0.9042 -0.9868 -1.7429
 5461SOL    HW321617   4.802   0.097   5.365 -1.1299  0.5888  0.0150
 5461SOL    MW421618   4.744   0.040   5.334 -0.5401  0.2358  0.3889
 5462SOL     OW21619   2.353   4.751   3.777  0.1857  0.1044 -0.3133
 5462SOL    HW221620   2.279   4.697   3.807  1.0140 -1.3282 -0.7717
 5462SOL    HW321621   2.326   4.783   3.691 -0.1735  0.1531 -0.1846
 5462SOL    MW421622   2.340   4.748   3.770 -0.0112  0.3768 -0.3006
 5463SOL     OW21623   3.912   2.530   5.542  0.0097  0.9216 -0.1107
 5463SOL    HW221624   3.965   2.594   5.589  0.4872  1.0634 -0.8376
 5463SOL    HW321625   3.823   2.566   5.544 -0.0854  0.6839  1.1032
 5463SOL    MW421626   3.907   2.543   5.549  0.0817  0.4986  0.0593
 5464SOL     OW21627   5.690   1.304   2.074 -0.4338 -0.0702  0.4564
 5464SOL    HW221628   5.633   1.232   2.100  0.0204 -0.4887  0.3187
 5464SOL    HW321629   5.732   1.332   2.156 -1.8947  1.2093  0.8173
 5464SOL    MW421630   5.688   1.298   2.088 -0.6567 -0.2981 -0.0210
 5465SOL     OW21631   5.041   0.126   3.720 -0.6933  0.1915 -0.7800
 5465SOL    HW221632   5.015   0.110   3.811 -3.5887 -0.6748 -1.6644
 5465SOL    HW321633   5.039   0.222   3.711  1.9150  0.4691  0.5829
 5465SOL    MW421634   5.038   0.137   3.731  0.0038 -0.2833  0.2496
 5466SOL     OW21635   3.831   0.886   1.601  0.5940 -0.7249 -0.4798
 5466SOL    HW221636   3.738   0.880   1.622  0.6892  0.1635  0.2984
 5466SOL    HW321637   3.864   0.797   1.612  0.0137 -0.8679  0.1747
 5466SOL    MW421638   3.823   0.873   1.606 -0.2096  1.0453  0.1434
 5467SOL     OW21639   2.509   2.314   1.602 -0.2129  0.1372  0.2755
 5467SOL    HW221640   2.593   2.361   1.603 -1.2428  2.2007  2.6870
 5467SOL    HW321641   2.444   2.382   1.582 -1.5812 -0.7533  1.4892
 5467SOL    MW421642   2.511   2.330   1.599 -0.3805 -0.0871  0.8998
 5468SOL     OW21643   2.990   1.682   1.502  0.3150  0.6270  0.4027
 5468SOL    HW221644   3.048   1.717   1.435  0.6610 -1.7550 -0.6571
 5468SOL    HW321645   2.902   1.692   1.465  0.4253  0.2205  0.0214
 5468SOL    MW421646   2.986   1.688   1.488  1.1548  0.2496  0.4222
 5469SOL     OW21647   4.473   0.742   6.074 -0.4711  0.0439  0.6119
 5469SOL    HW221648   4.416   0.666   6.079  0.1625 -0.5098 -0.2093
 5469SOL    HW321649   4.476   0.777   6.163  0.9987 -2.2073  1.5392
 5469SOL    MW421650   4.466   0.737   6.086 -1.1909  0.3459  0.3126
 5470SOL     OW21651   0.060   4.763   3.661 -0.0974  0.4060  0.8584
 5470SOL    HW221652   0.114   4.842   3.656  0.3058  0.2128  1.9988
 5470SOL    HW321653   0.019   4.766   3.747 -2.7449  1.0415 -0.3316
 5470SOL    MW421654   0.062   4.774   3.671 -0.1579 -0.2526 -0.4310
 5471SOL     OW21655   1.787   5.591   5.549  0.2920  0.1904  0.5145
 5471SOL    HW221656   1.769   5.555   5.636  0.5162  0.4253  0.6590
 5471SOL    HW321657   1.702   5.590   5.505  0.0686  0.5783  0.9245
 5471SOL    MW421658   1.773   5.586   5.555  0.4063  0.3320 -1.3637
 5472SOL     OW21659   0.188   1.056   5.621  0.0704 -0.0027 -0.5191
 5472SOL    HW221660   0.105   1.102   5.633 -0.2737  0.1311 -2.9999
 5472SOL    HW321661   0.254   1.114   5.659 -0.7262  0.8895 -0.4792
 5472SOL    MW421662   0.186   1.070   5.628  0.3388 -0.0622  0.3276
 5473SOL     OW21663   0.183   4.492   2.698 -0.0574  0.2669 -0.0943
 5473SOL    HW221664   0.129   4.416   2.720 -1.0207  0.9294 -0.1326
 5473SOL    HW321665   0.270   4.470   2.732 -0.6678 -0.2368  1.1825
 5473SOL    MW421666   0.187   4.479   2.705 -0.2996 -0.2211 -0.0623
 5474SOL     OW21667   5.738   2.081   1.467  0.1932  0.0591 -0.4450
 5474SOL    HW221668   5.653   2.072   1.424  1.0249 -0.9177 -1.9659
 5474SOL    HW321669   5.754   2.176   1.469 -0.6292  0.2098 -0.7250
 5474SOL    MW421670   5.729   2.093   1.462  0.2869 -0.7260 -0.3260
 5475SOL     OW21671   4.318   0.708   4.947  0.8533 -0.1886  0.2342
 5475SOL    HW221672   4.321   0.663   5.032 -0.3527  1.4045  1.1718
 5475SOL    HW321673   4.368   0.651   4.889  1.2112 -1.6396  1.8586
 5475SOL    MW421674   4.325   0.695   4.951  0.1697  0.6885  0.4361
 5476SOL     OW21675   3.296   4.936   2.659 -0.1670 -0.2511 -0.4014
 5476SOL    HW221676   3.385   4.939   2.625 -0.6243 -2.9656 -2.1226
 5476SOL    HW321677   3.300   4.985   2.741  3.5741 -2.4198  0.9643
 5476SOL    MW421678   3.308   4.943   2.665  0.3886 -0.0083 -0.6243
 5477SOL     OW21679   0.150   1.067   2.646  0.3159 -0.9808  0.5978
 5477SOL    HW221680   0.168   1.112   2.728 -0.6784 -1.9487  1.3719
 5477SOL    HW321681   0.160   0.974   2.666  2.1820 -1.1843 -0.9284
 5477SOL    MW421682   0.154   1.061   2.659 -0.4983 -0.0344  0.4899
 5478SOL     OW21683   1.791   6.171   2.648 -0.1438 -0.2351  0.4455
 5478SOL    HW221684   1.742   6.236   2.598  2.8332  0.9127 -1.1927
 5478SOL    HW321685   1.793   6.207   2.737  2.0282  2.4337 -0.5539
 5478SOL    MW421686   1.785   6.184   2.653  0.0976  0.3331 -0.7274
 5479SOL     OW21687   3.065   2.931   0.934 -0.7382  0.2811  0.1091
 5479SOL    HW221688   3.063   2.874   1.011  1.1816 -0.4636 -0.3513
 5479SOL    HW321689   3.087   2.873   0.861 -1.8334  1.1009 -0.9224
 5479SOL    MW421690   3.067   2.916   0.935 -0.4848 -0.5639  0.2303
 5480SOL     OW21691   4.622   4.875   1.809  0.3709 -0.2147  0.7788
 5480SOL    HW221692   4.532   4.850   1.786  0.1853  1.5604 -0.7540
 5480SOL    HW321693   4.634   4.960   1.765  1.6418  1.2959  3.7704
 5480SOL    MW421694   4.612   4.883   1.800  0.0471 -0.3191 -0.4040
 5481SOL     OW21695   0.670   3.330   5.709 -0.4103  0.1964  0.4515
 5481SOL    HW221696   0.712   3.408   5.672  0.2719 -0.2765  0.1972
 5481SOL    HW321697   0.623   3.362   5.786  1.0386  0.6354  1.1830
 5481SOL    MW421698   0.669   3.345   5.714 -0.1715  0.8176 -1.3254
 5482SOL     OW21699   2.741   1.746   5.940  0.3318 -0.5325 -0.1623
 5482SOL    HW221700   2.654   1.786   5.943 -0.4485 -2.1350 -0.3140
 5482SOL    HW321701   2.747   1.697   6.022  1.5992  0.5221  0.4025
 5482SOL    MW421702   2.730   1.745   5.952  0.0972  0.5643 -0.3788
 5483SOL     OW21703   2.686   4.156   1.034 -0.0919 -0.0331  0.0768
 5483SOL    HW221704   2.621   4.124   0.971  0.8823 -2.0759  0.0470
 5483SOL    HW321705   2.684   4.251   1.023 -2.2193 -0.1067 -0.7460
 5483SOL    MW421706   2.677   4.164   1.024 -0.1187  0.0019  0.5507
 5484SOL     OW21707   2.867   0.784   1.602 -0.6554 -0.0687  0.3277
 5484SOL    HW221708   2.870   0.768   1.508 -0.4759 -2.9651  0.7332
 5484SOL    HW321709   2.958   0.786   1.630 -0.7086 -1.1666  0.6552
 5484SOL    MW421710   2.879   0.782   1.593  0.3082 -0.6849  0.2641
 5485SOL     OW21711   5.614   1.552   1.064 -0.8045  0.4224  0.0731
 5485SOL    HW221712   5.674   1.567   0.991 -2.0124  0.8081 -0.8612
 5485SOL    HW321713   5.672   1.538   1.140  0.4698 -0.3315 -1.0015
 5485SOL    MW421714   5.630   1.552   1.065  0.3181  0.3287  0.0166
 5486SOL     OW21715   6.266   6.063   4.891 -0.9137 -0.1486  0.5671
 5486SOL    HW221716   6.181   6.108   4.889 -0.8903 -0.1226 -0.2812
 5486SOL    HW321717   6.319   6.112   4.829 -0.4154 -0.4429  0.7615
 5486SOL    MW421718   6.261   6.076   4.883 -0.0297  0.7896  0.0186
 5487SOL     OW21719   1.285   4.414   6.189  0.4196  0.5407  0.0198
 5487SOL    HW221720   1.261   4.330   6.229 -1.1993  0.5021 -0.9392
 5487SOL    HW321721   1.358   4.446   6.242  2.6756 -2.5351 -0.9339
 5487SOL    MW421722   1.292   4.407   6.201  0.0964 -0.3434 -0.4121
 5488SOL     OW21723   1.285   5.152   5.538  0.0393  0.1054 -0.0146
 5488SOL    HW221724   1.348   5.135   5.608  0.6526  0.9811 -0.3447
 5488SOL    HW321725   1.237   5.230   5.567 -0.1759  0.0592 -0.2414
 5488SOL    MW421726   1.287   5.160   5.551 -0.2074 -0.6019 -0.0625
 5489SOL     OW21727   0.253   0.017   4.212 -0.5884  0.2436 -0.3321
 5489SOL    HW221728   0.241   0.108   4.185  0.2955  0.3755 -0.3200
 5489SOL    HW321729   0.243   0.018   4.307 -0.9807  0.2616 -0.3763
 5489SOL    MW421730   0.250   0.029   4.221  0.0364 -0.5712 -0.2914
 5490SOL     OW21731   1.885   1.653   1.284  0.6795  0.1876  0.6847
 5490SOL    HW221732   1.819   1.650   1.214 -0.1272  2.0760  1.3018
 5490SOL    HW321733   1.842   1.612   1.359 -0.1682  2.1913  1.3380
 5490SOL    MW421734   1.870   1.647   1.285  0.0001 -0.5176  0.5178
 5491SOL     OW21735   1.583   5.964   6.051 -0.5496 -0.2406  0.0826
 5491SOL    HW221736   1.502   5.916   6.036 -0.6604  0.1947 -0.7992
 5491SOL    HW321737   1.598   6.011   5.969 -0.3591  1.0986  0.8540
 5491SOL    MW421738   1.574   5.964   6.038 -0.5125 -0.1747 -0.0937
 5492SOL     OW21739   3.031   5.255   3.136 -0.6006 -0.7480  0.1519
 5492SOL    HW221740   3.120   5.260   3.170  0.0308  0.6127 -1.5405
 5492SOL    HW321741   3.039   5.202   3.057 -1.2076 -0.3070 -0.2111
 5492SOL    MW421742   3.044   5.248   3.130  0.2941  0.4619 -0.2957
 5493SOL     OW21743   4.769   5.838   2.996  0.4646 -0.1701  0.3510
 5493SOL    HW221744   4.862   5.823   2.979  0.4267 -2.9728  1.9251
 5493SOL    HW321745   4.767   5.889   3.077  0.6203  0.1470  0.1570
 5493SOL    MW421746   4.781   5.843   3.005  0.0897  0.8175 -0.1977
 5494SOL     OW21747   4.101   1.351   3.238 -0.2700  0.1396  0.5768
 5494SOL    HW221748   4.098   1.329   3.331 -1.7410  1.8315  0.9611
 5494SOL    HW321749   4.178   1.407   3.229  0.0516 -0.2741  0.6946
 5494SOL    MW421750   4.111   1.355   3.249 -0.0911 -0.1019  0.4578
 5495SOL     OW21751   0.283   5.790   4.323 -0.1558 -0.1537  0.4312
 5495SOL    HW221752   0.272   5.747   4.238  1.3916  1.3179 -0.5840
 5495SOL    HW321753   0.377   5.799   4.333 -0.3592  0.7124  1.8010
 5495SOL    MW421754   0.294   5.785   4.313 -0.0473 -0.2370  0.1287
 5496SOL     OW21755   5.066   6.286   3.642  0.0425  0.4359  0.0492
 5496SOL    HW221756   4.980   6.256   3.671  0.0755  0.9769  0.7286
 5496SOL    HW321757   5.068   6.379   3.664  0.5610  0.5749 -0.5445
 5496SOL    MW421758   5.055   6.294   3.648  0.0897  0.3938  0.0778
 5497SOL     OW21759   5.553   1.038   3.430 -0.5616 -0.5073 -0.6505
 5497SOL    HW221760   5.509   1.122   3.414 -0.6639 -0.4698 -0.1873
 5497SOL    HW321761   5.529   1.015   3.520  2.8788  1.1051  0.9043
 5497SOL    MW421762   5.544   1.046   3.440 -0.1251 -0.0014  0.4335
 5498SOL     OW21763   4.891   5.882   3.983 -0.5265 -0.0469  0.4423
 5498SOL    HW221764   4.877   5.812   3.918  1.8970 -0.8795  0.7092
 5498SOL    HW321765   4.809   5.887   4.030 -2.0697 -0.0666 -2.0480
 5498SOL    MW421766   4.879   5.873   3.980 -0.0880  0.1104 -0.3012
 5499SOL     OW21767   0.725   1.416   2.637 -0.4279  0.0072  0.2811
 5499SOL    HW221768   0.782   1.488   2.610  1.1833 -0.6275  1.8180
 5499SOL    HW321769   0.731   1.352   2.566 -0.5984  0.6630 -0.3428
 5499SOL    MW421770   0.733   1.417   2.624  0.3330  0.1266 -0.3716
 5500SOL     OW21771   5.599   2.382   5.012 -0.6957 -0.3199 -0.0855
 5500SOL    HW221772   5.671   2.330   4.977 -1.2671  0.2525 -2.2618
 5500SOL    HW321773   5.541   2.317   5.054 -1.5393 -1.6201 -2.9597
 5500SOL    MW421774   5.601   2.366   5.013 -0.0439 -0.3675  0.1056
 5501SOL     OW21775   6.242   2.750   3.749 -0.1662  0.2176  0.3551
 5501SOL    HW221776   6.216   2.841   3.766  0.1770 -0.0310  2.4362
 5501SOL    HW321777   6.184   2.698   3.804  0.6796 -0.7329  0.3703
 5501SOL    MW421778   6.231   2.755   3.758 -0.2081 -0.6640 -0.4465
 5502SOL     OW21779   5.598   2.105   5.562  0.7765  0.0115 -0.2428
 5502SOL    HW221780   5.628   2.088   5.472  1.9074 -0.0302  0.1349
 5502SOL    HW321781   5.520   2.050   5.571  1.1427 -0.6493 -0.9285
 5502SOL    MW421782   5.592   2.095   5.551  0.3506 -0.5829 -0.4233
 5503SOL     OW21783   4.243   2.481   4.091 -0.0531  0.0788 -0.2529
 5503SOL    HW221784   4.298   2.413   4.129  1.4356  0.8673 -0.9504
 5503SOL    HW321785   4.155   2.442   4.091  0.6318 -1.5629  0.0187
 5503SOL    MW421786   4.238   2.467   4.096  0.5091 -0.0266 -0.2422
 5504SOL     OW21787   2.060   5.689   5.630  0.3538 -0.2478 -0.2576
 5504SOL    HW221788   1.968   5.684   5.605  0.0433 -3.8046  0.9643
 5504SOL    HW321789   2.059   5.725   5.719 -0.0566 -1.7062  0.3471
 5504SOL    MW421790   2.048   5.693   5.639 -0.4032 -0.5218 -0.4857
 5505SOL     OW21791   0.503   0.753   2.198 -0.1277  0.0122 -0.2332
 5505SOL    HW221792   0.473   0.788   2.114  1.8482 -0.1058 -1.0427
 5505SOL    HW321793   0.590   0.719   2.179  0.2587 -0.2271  1.8309
 5505SOL    MW421794   0.510   0.753   2.184  0.0774 -0.2396  0.3479
 5506SOL     OW21795   0.632   0.096   3.355 -0.1005 -0.1833 -0.0911
 5506SOL    HW221796   0.687   0.130   3.284 -1.6680  0.1233 -1.2150
 5506SOL    HW321797   0.587   0.021   3.316 -0.5731 -0.3473  0.7545
 5506SOL    MW421798   0.633   0.091   3.341 -0.2707  0.2104  0.2678
 5507SOL     OW21799   5.463   3.975   0.054  0.2703  0.1559 -0.0896
 5507SOL    HW221800   5.502   3.968   0.141 -1.1794  1.9028  0.7694
 5507SOL    HW321801   5.524   3.928  -0.003  1.5172 -0.6248  1.7702
 5507SOL    MW421802   5.476   3.968   0.058 -1.2762  0.1815 -0.2411
 5508SOL     OW21803   3.484   4.108   3.191  0.5524  0.5563 -0.5054
 5508SOL    HW221804   3.516   4.192   3.226 -0.2158  1.0809 -1.0293
 5508SOL    HW321805   3.442   4.066   3.266  2.4956 -0.1940  0.2230
 5508SOL    MW421806   3.483   4.114   3.206 -0.0947 -0.5102 -0.1885
 5509SOL     OW21807   2.318   3.697   2.471  0.1508  0.1160  0.5259
 5509SOL    HW221808   2.344   3.732   2.385 -0.1292 -1.9604 -0.4558
 5509SOL    HW321809   2.355   3.760   2.533 -0.1027  1.9889 -1.0981
 5509SOL    MW421810   2.326   3.710   2.468 -0.3549  0.2302  0.2275
 5510SOL     OW21811   6.199   5.382   4.035 -0.3209 -0.5989 -0.1930
 5510SOL    HW221812   6.196   5.413   3.944  0.9364  1.5140  0.4116
 5510SOL    HW321813   6.149   5.447   4.084 -1.1644 -1.8286  0.6568
 5510SOL    MW421814   6.192   5.394   4.029  0.2300  0.1506 -0.0520
 5511SOL     OW21815   1.690   5.662   0.548  0.6899  0.4647  0.1782
 5511SOL    HW221816   1.713   5.580   0.505  0.5744  0.4320  0.1767
 5511SOL    HW321817   1.772   5.710   0.555  0.5635  0.8839 -0.9500
 5511SOL    MW421818   1.704   5.658   0.543  0.9641 -0.3290 -0.0712
 5512SOL     OW21819   3.405   3.279   1.508  0.4544  0.0245  0.5403
 5512SOL    HW221820   3.484   3.324   1.480  0.4944 -0.8996 -0.9862
 5512SOL    HW321821   3.335   3.344   1.497  0.1941 -0.6341 -3.5181
 5512SOL    MW421822   3.406   3.293   1.503 -0.9379 -0.2977 -0.0125
 5513SOL     OW21823   2.003   0.265   1.897 -0.3300  0.6492 -0.0073
 5513SOL    HW221824   2.044   0.273   1.811  0.9011  0.5785  0.5463
 5513SOL    HW321825   1.944   0.340   1.903  0.2761  1.1788 -0.5546
 5513SOL    MW421826   2.001   0.276   1.887 -0.4318 -0.3343 -0.2145
 5514SOL     OW21827   5.253   4.159   1.533  0.2218 -0.4866 -0.1401
 5514SOL    HW221828   5.337   4.119   1.510  1.0192  1.5365 -0.9283
 5514SOL    HW321829   5.268   4.200   1.617  0.3939  0.8591 -0.8076
 5514SOL    MW421830   5.266   4.159   1.541  0.0548 -0.2383 -0.0246
 5515SOL     OW21831   2.305   3.212   0.314  0.2892 -0.3875 -0.7418
 5515SOL    HW221832   2.274   3.293   0.355 -2.0164 -2.9246  3.1695
 5515SOL    HW321833   2.390   3.196   0.355  0.2887 -0.4318 -0.7586
 5515SOL    MW421834   2.312   3.220   0.325 -0.0700 -0.2381 -0.9187
 5516SOL     OW21835   0.044   1.813   1.591  0.3681 -0.4961 -0.3884
 5516SOL    HW221836   0.061   1.730   1.636 -1.5822 -0.7048  0.0160
 5516SOL    HW321837   0.025   1.875   1.661  1.5873  0.2890 -0.7043
 5516SOL    MW421838   0.044   1.811   1.606  0.2304  0.3260  0.6157
 5517SOL     OW21839   3.723   3.632   4.293 -0.1742  0.2288  0.0532
 5517SOL    HW221840   3.684   3.566   4.350 -2.5339  0.1758 -1.4637
 5517SOL    HW321841   3.754   3.582   4.217 -0.0651  0.6421 -0.1743
 5517SOL    MW421842   3.722   3.617   4.290 -0.3549  0.0562 -0.0136
 5518SOL     OW21843   3.278   1.210   1.253  0.2671 -0.4015  0.0637
 5518SOL    HW221844   3.277   1.291   1.302  2.2366  1.1184 -2.2073
 5518SOL    HW321845   3.242   1.233   1.167  0.4620 -2.0277 -0.4979
 5518SOL    MW421846   3.273   1.223   1.248 -0.0827 -0.1949 -0.2015
 5519SOL     OW21847   2.398   1.858   4.785 -0.2873 -0.5481  0.2717
 5519SOL    HW221848   2.473   1.911   4.810  0.8991 -1.5047 -1.0690
 5519SOL    HW321849   2.372   1.891   4.699 -2.5677  0.9083  1.4086
 5519SOL    MW421850   2.404   1.869   4.777 -0.3062  0.4103  0.5932
 5520SOL     OW21851   0.322   0.853   0.783  0.1603 -0.3194 -0.2748
 5520SOL    HW221852   0.375   0.930   0.801  2.4060 -1.8184 -0.1150
 5520SOL    HW321853   0.298   0.861   0.691  0.5403  0.4524 -0.3149
 5520SOL    MW421854   0.326   0.864   0.773  0.0657 -0.2579 -0.1762
 5521SOL     OW21855   0.599   1.455   5.671  0.1103  0.1600  0.1210
 5521SOL    HW221856   0.687   1.432   5.639 -0.4145 -1.8907  0.0238
 5521SOL    HW321857   0.612   1.537   5.720  2.0347  0.0102 -0.0683
 5521SOL    MW421858   0.613   1.463   5.673 -0.3995  0.0508  0.0229
 5522SOL     OW21859   1.370   1.836   4.098  0.3772  0.8583 -0.4317
 5522SOL    HW221860   1.436   1.864   4.161  0.3312  0.1586 -0.0514
 5522SOL    HW321861   1.392   1.744   4.080 -3.1044 -1.0550  3.3161
 5522SOL    MW421862   1.382   1.827   4.104  0.2440 -0.8506  0.0658
 5523SOL     OW21863   1.646   2.350   0.244 -0.2069 -0.2749  0.3119
 5523SOL    HW221864   1.567   2.403   0.251  0.6033  0.9973  0.1554
 5523SOL    HW321865   1.698   2.373   0.321  0.3081 -0.5813  0.0645
 5523SOL    MW421866   1.642   2.360   0.255 -0.2100 -0.4758 -0.5158
 5524SOL     OW21867   5.806   1.392   2.314 -0.0342  0.4289 -0.1258
 5524SOL    HW221868   5.748   1.361   2.383  0.2625  0.3291  0.0806
 5524SOL    HW321869   5.893   1.393   2.355  0.3555 -0.8285 -0.8527
 5524SOL    MW421870   5.810   1.388   2.329  0.0883  0.3397 -0.4598
 5525SOL     OW21871   2.664   3.686   0.679  0.7117 -0.1785  0.1658
 5525SOL    HW221872   2.711   3.608   0.709 -0.0614 -0.4982  0.5896
 5525SOL    HW321873   2.631   3.662   0.593 -1.8553 -1.3976  1.3750
 5525SOL    MW421874   2.666   3.672   0.672 -0.6293  0.0864 -0.6296
 5526SOL     OW21875   3.326   5.078   2.911  0.1928  0.2503  0.3012
 5526SOL    HW221876   3.234   5.067   2.936  0.0743  1.0176  0.2283
 5526SOL    HW321877   3.348   5.168   2.937  0.6038  0.4469 -0.6597
 5526SOL    MW421878   3.317   5.089   2.918 -0.3685  0.4088 -0.6892
 5527SOL     OW21879   4.817   3.455   4.600  0.3569 -0.3633 -0.2205
 5527SOL    HW221880   4.794   3.417   4.516 -1.2890 -1.7372  0.7932
 5527SOL    HW321881   4.912   3.442   4.607  0.5777  0.0554 -1.9456
 5527SOL    MW421882   4.827   3.448   4.590  0.2763 -0.7421 -0.1468
 5528SOL     OW21883   1.637   1.862   2.547  0.7057  0.3343 -0.0806
 5528SOL    HW221884   1.552   1.845   2.586  0.7654  0.6810  0.2033
 5528SOL    HW321885   1.690   1.898   2.618  0.3447  2.4675 -0.8012
 5528SOL    MW421886   1.633   1.865   2.561  0.4911  0.6600 -0.2443
 5529SOL     OW21887   5.210   5.107   2.049 -0.3162 -0.4259  0.3395
 5529SOL    HW221888   5.277   5.039   2.044  0.3265  0.0635  1.7799
 5529SOL    HW321889   5.129   5.062   2.027  0.6699 -0.5705 -3.8350
 5529SOL    MW421890   5.208   5.092   2.045  0.2802  0.1005 -0.1540
 5530SOL     OW21891   6.280   3.610   1.429 -0.5560  0.9124  0.2779
 5530SOL    HW221892   6.326   3.694   1.430 -0.4280  0.8486 -0.0918
 5530SOL    HW321893   6.231   3.610   1.347  1.2966 -0.3426 -0.9130
 5530SOL    MW421894   6.280   3.621   1.419 -0.6244  0.3773  0.1335
 5531SOL     OW21895   4.333   5.842   3.680 -0.1618 -0.5526 -0.2440
 5531SOL    HW221896   4.309   5.789   3.604  0.0449 -1.8177  0.5526
 5531SOL    HW321897   4.256   5.897   3.695 -0.0854 -0.0392 -1.5417
 5531SOL    MW421898   4.319   5.842   3.672  0.0879 -0.2916  0.3592
 5532SOL     OW21899   0.793   3.377   1.645 -0.1132 -0.0901 -0.1551
 5532SOL    HW221900   0.784   3.319   1.720 -0.0774  0.7239  0.5020
 5532SOL    HW321901   0.727   3.446   1.661 -0.4649 -0.1897 -1.1368
 5532SOL    MW421902   0.783   3.379   1.657  0.4628  0.9936 -0.7390
 5533SOL     OW21903   3.824   1.922   6.125  0.3445  0.2613 -0.4122
 5533SOL    HW221904   3.786   1.852   6.177  1.6255  0.2545  0.5550
 5533SOL    HW321905   3.778   2.001   6.153  1.8108  0.4469  1.6423
 5533SOL    MW421906   3.813   1.923   6.135  0.2553  0.0098 -0.6205
 5534SOL     OW21907   6.032   2.062   3.089  0.1175 -0.8664  0.1039
 5534SOL    HW221908   5.971   2.133   3.070 -1.9918 -1.0275  4.8538
 5534SOL    HW321909   6.021   2.000   3.017 -2.0438  1.1704 -1.4302
 5534SOL    MW421910   6.023   2.063   3.077  0.0088  0.2073  0.0948
 5535SOL     OW21911   1.886   6.146   1.748 -0.1277  0.4645  0.0501
 5535SOL    HW221912   1.901   6.240   1.740  0.3230  0.4872  1.0228
 5535SOL    HW321913   1.817   6.128   1.684 -0.9387  1.6320  0.5635
 5535SOL    MW421914   1.879   6.156   1.738  0.2791  0.3812 -0.8515
 5536SOL     OW21915   2.118   2.153   5.463  0.1333 -0.1257  0.0661
 5536SOL    HW221916   2.082   2.073   5.502  1.5951 -1.2013 -0.7181
 5536SOL    HW321917   2.210   2.134   5.448  0.5276  1.7269 -0.1339
 5536SOL    MW421918   2.125   2.140   5.466 -0.0354 -0.4017 -0.3370
 5537SOL     OW21919   5.673   2.742   1.619 -0.1653  0.8097 -0.2472
 5537SOL    HW221920   5.665   2.786   1.703  2.2098 -1.7973  1.5827
 5537SOL    HW321921   5.594   2.689   1.611  0.2458 -0.0991  1.2301
 5537SOL    MW421922   5.662   2.741   1.629  0.3836  0.4293 -0.8148
 5538SOL     OW21923   0.684   4.214   4.993 -0.2364 -0.0318  0.0186
 5538SOL    HW221924   0.600   4.226   4.949 -0.7775 -0.1816  0.9758
 5538SOL    HW321925   0.661   4.202   5.085  1.0050  3.0617  0.8516
 5538SOL    MW421926   0.670   4.214   4.999  0.2049 -0.4826  0.0701
 5539SOL     OW21927   4.880   1.852   0.476  0.7334 -0.1261  0.3617
 5539SOL    HW221928   4.863   1.767   0.518 -0.7040  0.0755  0.2541
 5539SOL    HW321929   4.800   1.902   0.492  1.8249  1.4625  0.9942
 5539SOL    MW421930   4.867   1.847   0.484  0.0344  0.9053 -0.0459
 5540SOL     OW21931   2.624   6.275   2.671 -0.0108  0.3121  0.6124
 5540SOL    HW221932   2.626   6.203   2.608  0.0405  1.7802 -1.1574
 5540SOL    HW321933   2.546   6.258   2.724 -1.4427  0.2050 -1.3819
 5540SOL    MW421934   2.614   6.263   2.669 -0.2599  0.3622 -0.0740
 5541SOL     OW21935   0.511   2.159   5.035 -0.4954 -0.0909 -0.4007
 5541SOL    HW221936   0.519   2.170   5.130  0.5798  1.4115 -0.6272
 5541SOL    HW321937   0.461   2.079   5.025  1.5012 -1.6897  1.4265
 5541SOL    MW421938   0.506   2.150   5.046  0.4429 -0.0353  0.2869
 5542SOL     OW21939   1.921   4.608   5.549 -0.5345 -0.3112  0.4367
 5542SOL    HW221940   2.005   4.574   5.580 -0.2963 -1.4456 -1.3196
 5542SOL    HW321941   1.882   4.650   5.626  1.5241  0.0392  1.3429
 5542SOL    MW421942   1.927   4.609   5.564  0.0422  0.6067 -0.3080
 5543SOL     OW21943   2.404   6.192   2.218 -0.9281  0.1441  0.0594
 5543SOL    HW221944   2.395   6.271   2.164  2.0436 -0.3191 -1.3044
 5543SOL    HW321945   2.495   6.193   2.247 -0.9628 -2.4752  0.5071
 5543SOL    MW421946   2.415   6.203   2.215 -0.5255  0.5353 -0.9431
 5544SOL     OW21947   1.300   1.149   2.016  0.4312 -0.0174  0.0528
 5544SOL    HW221948   1.239   1.077   2.032  1.2919 -1.0306 -1.0730
 5544SOL    HW321949   1.379   1.107   1.982  0.8804  1.4668 -0.8420
 5544SOL    MW421950   1.303   1.134   2.013  0.1466 -0.3314 -0.5343
 5545SOL     OW21951   2.504   2.811   0.745  0.0528 -0.6256 -0.5046
 5545SOL    HW221952   2.599   2.796   0.753 -0.0934 -0.9586  1.1142
 5545SOL    HW321953   2.466   2.756   0.814 -1.3671 -0.8576 -1.4413
 5545SOL    MW421954   2.512   2.802   0.755 -0.3441  0.4052  0.2806
 5546SOL     OW21955   4.072   0.197   4.777 -0.2189  0.4526 -0.2213
 5546SOL    HW221956   4.148   0.235   4.821 -1.2245 -0.4791  2.5350
 5546SOL    HW321957   4.035   0.269   4.726  1.1608  1.5668  0.2896
 5546SOL    MW421958   4.077   0.211   4.776  0.0032 -0.6054  0.1826
 5547SOL     OW21959   5.999   4.835   5.227 -0.2950 -0.1463 -0.0478
 5547SOL    HW221960   6.079   4.789   5.201  1.2803  1.9101  0.8460
 5547SOL    HW321961   5.975   4.887   5.151 -0.5923 -0.5082 -0.2023
 5547SOL    MW421962   6.007   4.835   5.214  0.1357  0.0345 -0.2564
 5548SOL     OW21963   0.123   1.860   5.042  0.0365 -0.0198  0.4455
 5548SOL    HW221964   0.215   1.869   5.016 -0.1648  3.2990  0.3495
 5548SOL    HW321965   0.127   1.824   5.131  1.4347 -0.1740  0.3447
 5548SOL    MW421966   0.136   1.857   5.050 -0.0518 -0.0739  0.6800
 5549SOL     OW21967   3.444   1.727   2.573  0.1441 -0.0899 -0.0123
 5549SOL    HW221968   3.495   1.690   2.645  0.2677 -0.7530 -0.4342
 5549SOL    HW321969   3.491   1.807   2.550 -0.7533  0.9612  1.6403
 5549SOL    MW421970   3.457   1.733   2.579 -0.0199  0.1649  0.0424
 5550SOL     OW21971   4.404   3.324   1.368  0.1014 -0.2138 -0.5775
 5550SOL    HW221972   4.363   3.336   1.282 -0.6403 -0.5347 -0.2803
 5550SOL    HW321973   4.379   3.235   1.394 -1.5403  0.6281  0.9209
 5550SOL    MW421974   4.395   3.314   1.360 -0.1848  0.6286  0.2573
 5551SOL     OW21975   1.925   5.242   4.619 -0.3274 -0.0882  0.7891
 5551SOL    HW221976   1.986   5.169   4.611 -0.4683 -0.0748 -0.8507
 5551SOL    HW321977   1.868   5.218   4.692  1.2047 -0.4122  1.9064
 5551SOL    MW421978   1.925   5.229   4.627  0.6029 -0.0964 -0.3238
 5552SOL     OW21979   0.076   3.296   3.793  0.3551 -0.6161  0.4001
 5552SOL    HW221980   0.033   3.230   3.738  0.0001 -0.9911  1.1126
 5552SOL    HW321981   0.139   3.246   3.845  0.1774 -0.3791  0.8493
 5552SOL    MW421982   0.079   3.280   3.792 -0.0604 -0.2139 -0.1153
 5553SOL     OW21983   1.421   4.338   0.868  0.4069 -0.2426 -0.1490
 5553SOL    HW221984   1.362   4.412   0.885  0.8223  0.4927 -1.7115
 5553SOL    HW321985   1.471   4.328   0.949  0.1421  1.0078  0.1909
 5553SOL    MW421986   1.419   4.346   0.881 -0.2808 -0.0345  0.4353
 5554SOL     OW21987   0.848   3.555   5.332  0.1694 -1.0658 -0.6060
 5554SOL    HW221988   0.895   3.473   5.347  1.2424 -0.4773 -0.6122
 5554SOL    HW321989   0.917   3.620   5.316 -0.6396 -0.1207 -0.4023
 5554SOL    MW421990   0.863   3.553   5.332 -0.4116 -0.2690 -0.1485
 5555SOL     OW21991   2.269   6.012   5.958  0.0986  0.6339  0.3336
 5555SOL    HW221992   2.351   6.030   6.004  0.8424 -1.1806 -0.2032
 5555SOL    HW321993   2.290   5.942   5.896 -1.8498  0.1128  0.1807
 5555SOL    MW421994   2.283   6.005   5.956  0.1221  0.7605 -0.0940
 5556SOL     OW21995   4.960   2.999   0.117 -0.0704  0.0070  0.7312
 5556SOL    HW221996   4.902   3.059   0.163  0.1055 -0.3427  1.4203
 5556SOL    HW321997   4.926   2.912   0.137  1.1236 -0.2452  1.7680
 5556SOL    MW421998   4.948   2.996   0.125 -0.1380 -0.1232  0.8835
 5557SOL     OW21999   5.442   2.672   4.065  1.0324  0.0911 -0.0250
 5557SOL    HW222000   5.515   2.663   4.126  0.2259 -0.4375  0.9066
 5557SOL    HW322001   5.455   2.757   4.024  1.8265  0.2828  0.5848
 5557SOL    MW422002   5.453   2.682   4.068 -0.7450 -0.0076 -0.0356
 5558SOL     OW22003   0.480   2.553   5.089  0.4027  0.6578  0.0674
 5558SOL    HW222004   0.562   2.527   5.131  0.4147  0.7587  0.1048
 5558SOL    HW322005   0.486   2.516   5.001  0.1681  0.0292  0.3063
 5558SOL    MW422006   0.492   2.544   5.083  0.2611 -0.2664  0.2778
 5559SOL     OW22007   0.463   5.761   2.740 -0.2876  0.0187 -0.1260
 5559SOL    HW222008   0.502   5.779   2.655  0.7947  0.9975  0.5395
 5559SOL    HW322009   0.394   5.827   2.750 -0.8835 -0.5415 -0.5352
 5559SOL    MW422010   0.459   5.772   2.730  0.4949  0.5346 -0.0944
 5560SOL     OW22011   3.552   3.855   1.953  0.3288  0.1776  0.3232
 5560SOL    HW222012   3.635   3.842   2.000  0.5600  1.0814  0.1730
 5560SOL    HW322013   3.526   3.945   1.974 -0.7375 -0.1685  0.5553
 5560SOL    MW422014   3.560   3.865   1.962  0.1490 -0.0289  0.0579
 5561SOL     OW22015   2.627   3.935   1.951 -0.4840 -0.2498 -0.6847
 5561SOL    HW222016   2.666   3.962   1.868  0.8036  0.0492 -0.0125
 5561SOL    HW322017   2.579   3.855   1.931  0.7501 -0.8160 -1.5067
 5561SOL    MW422018   2.626   3.928   1.938 -0.2667  0.1604  0.1192
 5562SOL     OW22019   6.106   5.631   4.174 -0.6718 -0.1525 -0.0747
 5562SOL    HW222020   6.129   5.670   4.089  0.7111 -0.7020  0.0114
 5562SOL    HW322021   6.012   5.647   4.183 -0.6890  0.6445 -1.3280
 5562SOL    MW422022   6.097   5.638   4.164 -0.1148  0.4981  0.0940
 5563SOL     OW22023   4.949   6.294   1.595 -0.3906  0.0061  0.0974
 5563SOL    HW222024   4.873   6.330   1.549 -0.0993 -0.3039 -0.6408
 5563SOL    HW322025   4.945   6.200   1.579 -1.5423 -0.4537  2.6040
 5563SOL    MW422026   4.938   6.287   1.587 -0.0375 -0.4483  0.1277
 5564SOL     OW22027   1.622   4.274   3.468 -0.5071 -0.0068  0.0830
 5564SOL    HW222028   1.597   4.193   3.511 -1.1866  0.0280 -0.2403
 5564SOL    HW322029   1.556   4.287   3.400 -0.4847  0.8797  0.2158
 5564SOL    MW422030   1.610   4.265   3.465  0.4551 -0.2087 -0.2525
 5565SOL     OW22031   1.427   2.922   3.145 -0.1631 -0.0157  0.4458
 5565SOL    HW222032   1.350   2.959   3.187 -1.8869 -2.3716 -0.4475
 5565SOL    HW322033   1.431   2.964   3.060 -0.5611  0.0139  0.4419
 5565SOL    MW422034   1.418   2.932   3.140 -1.0605  0.2370  0.0520
 5566SOL     OW22035   4.226   3.940   2.859 -0.5824 -0.5888  0.1953
 5566SOL    HW222036   4.250   4.019   2.908 -0.3689 -1.4246  1.4981
 5566SOL    HW322037   4.154   3.967   2.803 -0.4182  0.5697  0.5239
 5566SOL    MW422038   4.220   3.954   2.858  0.3266 -0.0596 -0.1668
 5567SOL     OW22039   6.293   0.892   6.149 -0.2056 -0.3589  0.3998
 5567SOL    HW222040   6.339   0.915   6.069  0.4692 -2.4085  0.1360
 5567SOL    HW322041   6.288   0.974   6.199  0.8352  0.5945 -0.9912
 5567SOL    MW422042   6.298   0.906   6.145 -0.1060  0.6559 -0.5696
 5568SOL     OW22043   3.025   4.508   3.822  0.1112 -0.3901  0.3128
 5568SOL    HW222044   2.956   4.491   3.886 -0.3010 -0.1889 -0.0720
 5568SOL    HW322045   3.039   4.423   3.780  0.3330 -0.5060  0.6121
 5568SOL    MW422046   3.018   4.494   3.825 -0.4787  0.0498 -0.3606
 5569SOL     OW22047   0.063   2.908   0.079  0.2095  0.1636 -0.4651
 5569SOL    HW222048  -0.003   2.977   0.067 -2.3335 -1.8208  1.0218
 5569SOL    HW322049   0.087   2.913   0.171 -2.5292 -2.8042  0.5943
 5569SOL    MW422050   0.057   2.918   0.089  0.4940  0.3896 -0.0779
 5570SOL     OW22051   0.848   0.308   4.561  0.0585  0.3759 -0.1317
 5570SOL    HW222052   0.861   0.214   4.570 -0.6488  0.2319 -0.4905
 5570SOL    HW322053   0.926   0.348   4.599 -0.4697 -0.3065  1.8092
 5570SOL    MW422054   0.860   0.301   4.567 -0.7018  0.2489  0.2201
 5571SOL     OW22055   3.878   3.955   3.385 -0.8566  0.0932 -0.3532
 5571SOL    HW222056   3.856   4.005   3.464 -1.1975  1.3401 -1.2068
 5571SOL    HW322057   3.945   4.007   3.342  0.4019 -1.3116 -0.1883
 5571SOL    MW422058   3.884   3.969   3.390 -0.4270  0.5344 -0.0405
 5572SOL     OW22059   5.361   6.025   4.239 -0.3273  0.1127  0.2911
 5572SOL    HW222060   5.361   6.119   4.258 -0.2911 -0.1353  1.6143
 5572SOL    HW322061   5.268   6.000   4.242 -0.3356  0.0936 -0.0442
 5572SOL    MW422062   5.348   6.034   4.242 -1.0120  0.4388  0.1143
 5573SOL     OW22063   2.356   6.089   1.866  0.2281 -0.4173 -0.0483
 5573SOL    HW222064   2.395   6.164   1.911  0.5313 -1.8900  2.3325
 5573SOL    HW322065   2.271   6.077   1.908  0.1909 -1.3857 -0.3695
 5573SOL    MW422066   2.350   6.097   1.877  0.2910  0.3209 -0.7506
 5574SOL     OW22067   2.692   1.687   0.576  0.1102 -0.1162  0.3388
 5574SOL    HW222068   2.672   1.781   0.570 -1.9939 -0.4958  0.4347
 5574SOL    HW322069   2.783   1.680   0.550 -0.1867  1.7431 -1.4769
 5574SOL    MW422070   2.701   1.698   0.572  0.7787 -0.1697 -0.5621
 5575SOL     OW22071   4.386   5.762   1.092  0.5219  0.7252  0.2140
 5575SOL    HW222072   4.346   5.846   1.068 -1.5002 -0.1794  0.2455
 5575SOL    HW322073   4.312   5.702   1.101  1.9484 -1.1417 -0.0496
 5575SOL    MW422074   4.371   5.765   1.090 -0.5649  0.0562  0.3307
 5576SOL     OW22075   4.182   3.333   1.937  0.2611 -0.2056  0.1803
 5576SOL    HW222076   4.178   3.378   1.852  0.2186  0.5789  0.5821
 5576SOL    HW322077   4.200   3.242   1.916 -1.3405 -0.3496 -0.7799
 5576SOL    MW422078   4.184   3.327   1.923 -0.5548 -0.6055 -0.2968
 5577SOL     OW22079   2.410   3.737   5.939 -0.2963 -0.4537  0.5477
 5577SOL    HW222080   2.324   3.709   5.910 -1.5264  3.7803 -0.6352
 5577SOL    HW322081   2.447   3.783   5.864  2.7309 -1.4297  1.2911
 5577SOL    MW422082   2.404   3.739   5.925 -0.3575  0.3878 -0.4638
 5578SOL     OW22083   5.484   2.223   0.442 -0.0395 -0.0006 -0.4281
 5578SOL    HW222084   5.564   2.264   0.408 -0.8996  1.2934 -0.9467
 5578SOL    HW322085   5.503   2.210   0.535  0.7201  0.4088 -0.5149
 5578SOL    MW422086   5.497   2.227   0.450 -0.0573 -0.1061  0.0824
 5579SOL     OW22087   2.183   3.176   2.591 -0.0021  0.0718 -0.8281
 5579SOL    HW222088   2.123   3.163   2.665  1.5485  0.5433  0.5735
 5579SOL    HW322089   2.146   3.248   2.541 -0.9274 -0.0614 -0.3429
 5579SOL    MW422090   2.170   3.184   2.594  0.2945  0.2950  0.0708
 5580SOL     OW22091   3.114   4.194   2.268  0.4963  0.0403 -0.3315
 5580SOL    HW222092   3.070   4.182   2.352 -1.0354 -2.4721 -1.3534
 5580SOL    HW322093   3.042   4.200   2.205  1.5677 -1.0677 -1.7250
 5580SOL    MW422094   3.098   4.193   2.271 -0.1653 -0.0654 -0.1818
 5581SOL     OW22095   5.514   4.389   1.257 -0.5501 -0.4315  0.2759
 5581SOL    HW222096   5.426   4.421   1.237 -0.6999  0.6247  2.3735
 5581SOL    HW322097   5.571   4.437   1.197 -1.1697  0.9123  0.7195
 5581SOL    MW422098   5.510   4.399   1.246 -0.3058  0.3257  0.3024
 5582SOL     OW22099   4.812   6.186   3.740  0.2027  0.0478 -0.3818
 5582SOL    HW222100   4.788   6.093   3.745 -0.4801  0.1905 -0.9462
 5582SOL    HW322101   4.760   6.227   3.809  2.3458 -0.3224  1.6268
 5582SOL    MW422102   4.802   6.179   3.750 -0.2524 -0.7140  0.2169
 5583SOL     OW22103   0.999   1.067   1.582 -1.1529  0.1157  0.5723
 5583SOL    HW222104   1.057   1.101   1.651 -0.8896  0.9538 -0.0407
 5583SOL    HW322105   1.034   1.104   1.501 -1.6733 -0.5677  0.0253
 5583SOL    MW422106   1.011   1.077   1.581 -0.0639  0.0502 -0.2545
 5584SOL     OW22107   2.693   1.033   2.310 -0.2780  0.5639  0.4937
 5584SOL    HW222108   2.787   1.017   2.300 -0.6724 -1.0640 -1.2474
 5584SOL    HW322109   2.663   0.960   2.364 -0.1090  2.8924  4.0708
 5584SOL    MW422110   2.702   1.021   2.316 -0.6170  0.0523 -0.7003
 5585SOL     OW22111   4.837   0.328   0.027  0.2313 -0.0454 -0.6038
 5585SOL    HW222112   4.927   0.360   0.015 -0.1983  1.3431 -0.3090
 5585SOL    HW322113   4.783   0.392  -0.018 -0.6562 -0.5390 -0.2575
 5585SOL    MW422114   4.842   0.341   0.019  0.0451  0.4295 -0.0475
 5586SOL     OW22115   2.637   1.481   4.170  0.3460 -0.1629 -0.3895
 5586SOL    HW222116   2.650   1.495   4.077 -0.8052  2.7776 -0.1992
 5586SOL    HW322117   2.650   1.567   4.210 -2.5173 -0.5812  1.7458
 5586SOL    MW422118   2.641   1.494   4.163  0.2237 -0.3547  0.4383
 5587SOL     OW22119   3.990   5.932   1.796 -0.1018 -0.2183  0.1261
 5587SOL    HW222120   4.058   5.895   1.740 -0.5462 -0.7577 -0.0776
 5587SOL    HW322121   4.018   5.911   1.885  0.0167 -0.4120  0.0443
 5587SOL    MW422122   4.003   5.924   1.800 -0.4538 -0.2748  0.1138
 5588SOL     OW22123   3.988   5.600   2.976  0.0801  0.1476  0.3098
 5588SOL    HW222124   3.973   5.515   3.016 -0.9908 -0.6251 -1.6107
 5588SOL    HW322125   3.901   5.641   2.972  0.5774  1.3743  1.2164
 5588SOL    MW422126   3.974   5.594   2.981  0.2504 -0.5370  0.3611
 5589SOL     OW22127   0.802   1.092   0.664  0.4738 -0.5976 -0.6396
 5589SOL    HW222128   0.721   1.095   0.715  0.7414 -0.8676 -0.1879
 5589SOL    HW322129   0.863   1.147   0.713 -0.1435  1.7129 -2.3022
 5589SOL    MW422130   0.799   1.100   0.677  0.3095  0.2431 -0.2668
 5590SOL     OW22131   3.649   0.355   3.674 -0.2128 -0.2616 -0.0641
 5590SOL    HW222132   3.598   0.403   3.739 -2.0855 -1.6998 -0.3962
 5590SOL    HW322133   3.710   0.420   3.639 -0.5463  1.0470  1.6508
 5590SOL    MW422134   3.651   0.370   3.678  0.0942 -0.4892 -0.1665
 5591SOL     OW22135   5.264   0.699   5.454 -0.3955 -0.4664 -0.1770
 5591SOL    HW222136   5.329   0.630   5.457  1.1975  0.9987  0.7842
 5591SOL    HW322137   5.217   0.692   5.537 -0.8069 -0.9100 -0.4451
 5591SOL    MW422138   5.266   0.689   5.465  0.3387 -0.3761  0.6395
 5592SOL     OW22139   2.521   4.537   6.226  0.5830  0.0284 -0.1863
 5592SOL    HW222140   2.469   4.515   6.149 -1.6548  0.7120  1.0345
 5592SOL    HW322141   2.456   4.565   6.291  2.3947 -0.3463  1.8865
 5592SOL    MW422142   2.505   4.538   6.225 -0.0389 -0.2012  0.2171
 5593SOL     OW22143   5.262   6.382   5.412 -0.0621  0.0442 -0.8233
 5593SOL    HW222144   5.352   6.355   5.431  0.1155  0.6003 -0.8595
 5593SOL    HW322145   5.213   6.360   5.492 -0.2402 -1.7664 -1.3998
 5593SOL    MW422146   5.267   6.376   5.425 -0.3720  0.5233  0.3335
 5594SOL     OW22147   1.916   6.410   1.651 -0.1126 -0.0917 -0.3717
 5594SOL    HW222148   2.010   6.390   1.652 -0.7583 -3.8666  0.6982
 5594SOL    HW322149   1.897   6.442   1.739  0.2978  1.8990 -0.9596
 5594SOL    MW422150   1.926   6.412   1.662 -0.1626  0.2049 -0.4816
 5595SOL     OW22151   5.620   3.913   3.485 -0.5434 -0.2645  0.3635
 5595SOL    HW222152   5.583   3.827   3.463 -1.0811 -0.0566  0.4436
 5595SOL    HW322153   5.655   3.946   3.402  0.4035 -0.9098  0.4922
 5595SOL    MW422154   5.619   3.906   3.471  0.3230 -0.2918 -0.0919
 5596SOL     OW22155   4.044   2.747   2.627 -0.2049  0.5724 -0.1426
 5596SOL    HW222156   4.040   2.784   2.538  0.5843 -0.1752 -0.5016
 5596SOL    HW322157   4.088   2.663   2.616 -0.5674  0.2384  0.8917
 5596SOL    MW422158   4.050   2.741   2.614  0.0988 -0.0647  0.4187
 5597SOL     OW22159   5.880   5.163   5.592 -0.3946 -0.4096  0.2052
 5597SOL    HW222160   5.870   5.074   5.558  0.2277 -0.2104 -0.5318
 5597SOL    HW322161   5.881   5.218   5.513 -0.3736  0.2089  0.6332
 5597SOL    MW422162   5.879   5.159   5.577 -0.0267  0.3049  0.4404
 5598SOL     OW22163   5.826   0.196   5.962  0.1110 -0.3667  0.0565
 5598SOL    HW222164   5.911   0.156   5.979  0.3373  0.0321 -0.1231
 5598SOL    HW322165   5.765   0.123   5.959  0.7198 -0.8433 -1.6679
 5598SOL    MW422166   5.829   0.181   5.964 -0.2148 -0.8111 -0.1484
 5599SOL     OW22167   4.696   0.554   2.253  0.2945 -0.9279  0.9619
 5599SOL    HW222168   4.603   0.559   2.274 -0.2067 -0.5087 -1.0754
 5599SOL    HW322169   4.714   0.460   2.247 -0.2100 -1.0132  0.6322
 5599SOL    MW422170   4.686   0.542   2.255 -0.3817 -0.0085  0.3025
 5600SOL     OW22171   1.267   0.148   4.709  0.1307 -0.4099 -0.2069
 5600SOL    HW222172   1.329   0.152   4.637 -0.5447  1.5010 -0.7258
 5600SOL    HW322173   1.184   0.122   4.669  0.4466 -2.6556  0.4391
 5600SOL    MW422174   1.264   0.145   4.695 -0.1507  0.4415  0.0481
 5601SOL     OW22175   4.269   4.042   2.433  0.6431 -0.1591  0.0019
 5601SOL    HW222176   4.363   4.029   2.441  0.7489  0.1651 -0.6956
 5601SOL    HW322177   4.231   3.983   2.499  1.3455  0.0386  0.5916
 5601SOL    MW422178   4.276   4.033   2.443  0.1073  0.1721 -0.1058
 5602SOL     OW22179   6.195   5.204   4.947 -0.0358  0.2194 -0.5448
 5602SOL    HW222180   6.135   5.278   4.936  0.4073  0.6938  0.1629
 5602SOL    HW322181   6.238   5.196   4.863 -1.4091 -0.4248 -1.2221
 5602SOL    MW422182   6.192   5.213   4.935 -0.1952  0.0089 -0.2491
 5603SOL     OW22183   2.524   0.439   6.005 -0.9594 -0.1054  0.5699
 5603SOL    HW222184   2.474   0.361   6.032 -1.0007  0.1017  1.1115
 5603SOL    HW322185   2.460   0.494   5.961 -0.9632 -0.3182  0.3077
 5603SOL    MW422186   2.509   0.436   6.003 -0.5878 -0.2948 -0.3530
 5604SOL     OW22187   0.459   0.720   4.945 -0.4582  0.2325  0.0403
 5604SOL    HW222188   0.478   0.681   4.860  1.0597  0.3283  0.3079
 5604SOL    HW322189   0.543   0.722   4.990 -0.5583  3.1609  0.3112
 5604SOL    MW422190   0.472   0.716   4.940 -0.0056  0.2708  0.9651
 5605SOL     OW22191   0.897   2.947   0.597 -0.0373 -0.3639 -0.1875
 5605SOL    HW222192   0.897   3.038   0.627 -0.1403 -0.7172  0.9316
 5605SOL    HW322193   0.941   2.950   0.512 -2.4469  1.1214 -1.4725
 5605SOL    MW422194   0.903   2.959   0.590  0.1360  0.5083 -0.3816
 5606SOL     OW22195   0.456   2.382   0.399  0.3388  0.4366  0.0904
 5606SOL    HW222196   0.368   2.414   0.420  0.6045  0.8545  0.5857
 5606SOL    HW322197   0.445   2.335   0.316 -0.0742  1.7200 -0.6051
 5606SOL    MW422198   0.443   2.380   0.391  0.2835  0.0048  0.5908
 5607SOL     OW22199   3.717   5.587   5.244 -0.7329  0.8751 -0.1122
 5607SOL    HW222200   3.791   5.646   5.230 -1.6649  1.9432 -0.7002
 5607SOL    HW322201   3.692   5.602   5.335 -0.8835  1.2898 -0.2207
 5607SOL    MW422202   3.724   5.597   5.254 -0.6454 -0.1899  0.3365
 5608SOL     OW22203   1.636   0.054   4.236 -0.2027 -0.1478  0.2320
 5608SOL    HW222204   1.729   0.031   4.236 -0.3900 -0.9463  0.3951
 5608SOL    HW322205   1.635   0.149   4.240  0.6126 -0.1552  1.1709
 5608SOL    MW422206   1.648   0.063   4.237  0.8197 -0.3859  0.1227
 5609SOL     OW22207   0.647   4.337   1.993 -0.0714  0.3527 -0.4341
 5609SOL    HW222208   0.738   4.365   1.993 -0.3779  1.6411  2.5554
 5609SOL    HW322209   0.638   4.281   2.070 -0.7877 -3.9873 -3.2961
 5609SOL    MW422210   0.658   4.333   2.003 -0.2357 -0.0310 -0.1739
 5610SOL     OW22211   5.546   1.501   5.996  0.4965 -0.1761  0.0888
 5610SOL    HW222212   5.559   1.425   6.054 -0.9244 -1.0093 -0.6177
 5610SOL    HW322213   5.451   1.516   5.998  0.8746  2.7333  1.5828
 5610SOL    MW422214   5.535   1.493   6.004  0.1151  0.1095 -0.1431
 5611SOL     OW22215   1.836   4.175   4.870  0.2793  0.4933 -0.4890
 5611SOL    HW222216   1.905   4.143   4.812  0.5825  0.6923 -0.2380
 5611SOL    HW322217   1.782   4.098   4.887  0.5270  0.3023 -0.5626
 5611SOL    MW422218   1.838   4.161   4.864  0.0339  0.4341  0.7295
 5612SOL     OW22219   6.283   4.655   1.100 -0.4224  0.1468  0.3025
 5612SOL    HW222220   6.245   4.654   1.188  0.9567 -1.3958  0.9450
 5612SOL    HW322221   6.284   4.564   1.073  0.5801  0.4187 -0.6702
 5612SOL    MW422222   6.278   4.643   1.108  0.1794 -0.1820  0.1855
 5613SOL     OW22223   3.550   2.260   3.745  0.6450  0.5583  0.0393
 5613SOL    HW222224   3.482   2.320   3.777  1.1516  0.6134  1.0588
 5613SOL    HW322225   3.519   2.173   3.769 -1.0029  0.1364 -3.0769
 5613SOL    MW422226   3.537   2.257   3.753  0.3577  0.0569 -0.0795
 5614SOL     OW22227   0.415   4.971   3.383  0.1385  0.1453  0.5488
 5614SOL    HW222228   0.488   4.967   3.321  1.3018 -2.4090  1.9424
 5614SOL    HW322229   0.367   4.890   3.368 -1.8100  1.2523  0.4655
 5614SOL    MW422230   0.418   4.960   3.373  0.0755 -0.3653  0.3831
 5615SOL     OW22231   2.483   5.194   1.694  0.2563 -1.3042 -0.5817
 5615SOL    HW222232   2.577   5.207   1.695  0.1363 -0.3985 -0.5251
 5615SOL    HW322233   2.469   5.114   1.745  1.0844 -2.1372 -1.6232
 5615SOL    MW422234   2.493   5.185   1.701  0.3059 -0.2809 -1.0718
 5616SOL     OW22235   1.349   0.276   4.013 -0.7178  0.2724 -0.2889
 5616SOL    HW222236   1.288   0.340   4.051  1.0677  1.2028  1.1696
 5616SOL    HW322237   1.422   0.273   4.075  0.5505 -1.0899 -1.7665
 5616SOL    MW422238   1.351   0.284   4.026  0.1486 -0.1019 -0.0295
 5617SOL     OW22239   1.798   3.007   1.860 -0.0525 -0.1760  0.4728
 5617SOL    HW222240   1.866   2.946   1.888 -0.6406 -0.4080  1.4222
 5617SOL    HW322241   1.772   3.054   1.939 -0.7515  0.1662  0.0572
 5617SOL    MW422242   1.803   3.005   1.874 -0.2204 -0.5520  0.0721
 5618SOL     OW22243   4.194   4.245   6.168  0.4019  0.3404 -0.0637
 5618SOL    HW222244   4.137   4.171   6.147  0.3931  0.0658  0.8563
 5618SOL    HW322245   4.282   4.215   6.147  0.6586 -0.7667  2.2591
 5618SOL    MW422246   4.198   4.231   6.163 -0.4894  0.3481  0.4952
 5619SOL     OW22247   2.917   3.144   0.716  0.2898  0.1436 -0.1869
 5619SOL    HW222248   2.902   3.140   0.811  1.5871  3.0270  0.2463
 5619SOL    HW322249   3.011   3.159   0.707 -0.2423  3.3000 -1.6831
 5619SOL    MW422250   2.927   3.145   0.728 -0.3155  0.2331  0.5108
 5620SOL     OW22251   5.065   2.613   6.348 -0.4458 -0.4606 -0.5144
 5620SOL    HW222252   5.023   2.699   6.349  0.1201 -0.1510  1.2273
 5620SOL    HW322253   5.159   2.632   6.347 -0.2021 -0.8775  2.4902
 5620SOL    MW422254   5.072   2.627   6.348  0.0553  0.0749  0.2669
 5621SOL     OW22255   0.229   3.661   2.651 -0.0851 -0.2524 -0.7151
 5621SOL    HW222256   0.296   3.713   2.695  0.2299 -1.5699  0.4376
 5621SOL    HW322257   0.222   3.581   2.704 -4.1118  0.6877  0.5576
 5621SOL    MW422258   0.237   3.657   2.664  0.6945 -0.1784 -0.8941
 5622SOL     OW22259   2.215   4.605   1.277  0.3701  0.6219  0.0382
 5622SOL    HW222260   2.163   4.654   1.342 -0.4561  0.5768 -0.5662
 5622SOL    HW322261   2.173   4.519   1.273  0.9490  0.3337  0.0676
 5622SOL    MW422262   2.202   4.600   1.285 -0.0253  0.1526 -0.1680
 5623SOL     OW22263   6.261   2.256   5.715  0.2617  0.6252  0.6227
 5623SOL    HW222264   6.322   2.186   5.688 -2.0875 -0.5634 -2.2338
 5623SOL    HW322265   6.250   2.309   5.636 -0.2431  2.5571  1.9211
 5623SOL    MW422266   6.268   2.253   5.701  0.4905  0.0155  0.2371
 5624SOL     OW22267   0.360   4.482   1.173  0.0921  0.1855 -0.4279
 5624SOL    HW222268   0.291   4.547   1.177 -1.8789 -1.8673  1.2832
 5624SOL    HW322269   0.416   4.501   1.248 -0.4456 -0.0440  0.0343
 5624SOL    MW422270   0.359   4.493   1.183  0.0298  0.0277 -0.7893
 5625SOL     OW22271   0.999   5.242   5.019  0.1688 -0.5856  0.0451
 5625SOL    HW222272   1.002   5.162   4.966 -0.2767 -0.1630 -0.6424
 5625SOL    HW322273   0.942   5.301   4.969 -2.4861 -1.0719  2.2472
 5625SOL    MW422274   0.992   5.239   5.005 -0.2960 -0.4489 -0.0951
 5626SOL     OW22275   1.226   4.748   4.443  0.2629 -0.0140  0.2100
 5626SOL    HW222276   1.261   4.695   4.515  1.5399 -0.6797 -0.8458
 5626SOL    HW322277   1.277   4.721   4.367  1.4595  3.1670 -0.2818
 5626SOL    MW422278   1.238   4.738   4.443  0.5957 -0.0206 -0.0732
 5627SOL     OW22279   6.241   0.125   4.794 -0.0760  0.3730  0.4626
 5627SOL    HW222280   6.299   0.103   4.721 -0.5568  1.4162 -0.2537
 5627SOL    HW322281   6.164   0.164   4.753 -1.8779 -2.0463  1.2928
 5627SOL    MW422282   6.239   0.128   4.779  0.2999 -0.2817 -0.6755
 5628SOL     OW22283   0.796   1.331   3.487 -0.1477 -0.1003  0.1012
 5628SOL    HW222284   0.739   1.407   3.470  0.6367  0.1003 -1.8645
 5628SOL    HW322285   0.871   1.368   3.533  0.4454  0.4259 -1.2493
 5628SOL    MW422286   0.798   1.346   3.491 -0.5805  0.4283  0.2399
 5629SOL     OW22287   4.860   1.714   2.285  0.6662  0.3718 -0.0617
 5629SOL    HW222288   4.811   1.738   2.364 -0.7596  2.1755 -1.4072
 5629SOL    HW322289   4.913   1.792   2.265  0.0764  0.4252 -1.5451
 5629SOL    MW422290   4.861   1.728   2.293 -0.0733 -0.3320  0.3438
 5630SOL     OW22291   3.425   1.965   5.261  0.1992 -0.1164  0.0465
 5630SOL    HW222292   3.431   2.036   5.324 -1.5806  0.5076 -0.4363
 5630SOL    HW322293   3.464   1.890   5.306  0.2401  0.6525  1.3431
 5630SOL    MW422294   3.431   1.964   5.275 -0.4003 -1.2444  0.0463
 5631SOL     OW22295   4.863   5.653   3.837  0.8191  0.1275 -0.1273
 5631SOL    HW222296   4.823   5.578   3.794  1.1423 -0.0891 -0.0550
 5631SOL    HW322297   4.954   5.627   3.851  0.7896  0.3067  0.4282
 5631SOL    MW422298   4.870   5.640   3.833  0.7453 -0.4355 -0.1721
 5632SOL     OW22299   2.298   0.481   4.671  0.1959 -0.3467  0.4485
 5632SOL    HW222300   2.344   0.404   4.704  0.2123 -0.8828 -0.7623
 5632SOL    HW322301   2.300   0.471   4.576 -2.2382 -0.3208  0.3170
 5632SOL    MW422302   2.304   0.470   4.663  0.1472  0.1667 -0.4479
 5633SOL     OW22303   6.278   3.353   1.154 -0.9994  0.3170 -0.0252
 5633SOL    HW222304   6.204   3.414   1.151 -1.9793 -0.8284  0.0933
 5633SOL    HW322305   6.265   3.304   1.236 -1.6103 -1.6911 -1.2527
 5633SOL    MW422306   6.267   3.355   1.165  0.5825 -0.2823  0.2172
 5634SOL     OW22307   4.665   4.084   4.839 -0.2569  0.2928 -0.2939
 5634SOL    HW222308   4.705   4.015   4.891  1.1866  1.7732  0.6577
 5634SOL    HW322309   4.715   4.085   4.757  0.5733  0.9930  0.1981
 5634SOL    MW422310   4.677   4.075   4.835 -0.0045 -0.1998 -0.1764
 5635SOL     OW22311   4.903   0.568   5.719  0.0503  0.4711 -0.1387
 5635SOL    HW222312   4.882   0.587   5.628  0.9270  0.3700 -0.3680
 5635SOL    HW322313   4.824   0.592   5.767  0.2309  2.3023 -0.7063
 5635SOL    MW422314   4.889   0.573   5.713 -0.2427  0.2011  0.1675
 5636SOL     OW22315   0.540   0.914   6.220 -0.3954  0.3016 -0.2102
 5636SOL    HW222316   0.558   1.000   6.260  2.5410 -0.5184  0.4822
 5636SOL    HW322317   0.448   0.897   6.240 -0.5777  2.4993  1.1954
 5636SOL    MW422318   0.530   0.923   6.228 -0.1485 -0.0815 -0.0053
 5637SOL     OW22319   0.700   4.382   3.974  0.0946  0.8516 -0.4311
 5637SOL    HW222320   0.688   4.373   3.879 -0.4691 -0.9640 -0.2393
 5637SOL    HW322321   0.766   4.450   3.984 -0.4952  1.7186 -2.0921
 5637SOL    MW422322   0.707   4.390   3.963  0.1435  0.1387 -0.3611
 5638SOL     OW22323   1.481   4.942   4.397  0.5406 -0.1944 -0.2707
 5638SOL    HW222324   1.550   4.957   4.334  2.2934 -0.6768  1.4446
 5638SOL    HW322325   1.454   4.851   4.383  0.1029  0.0538 -1.0658
 5638SOL    MW422326   1.486   4.932   4.387 -0.3672  0.3003  0.2137
 5639SOL     OW22327   2.007   2.338   3.281 -0.2564 -0.1945  0.1910
 5639SOL    HW222328   2.085   2.346   3.336 -0.2589  1.3858  0.0152
 5639SOL    HW322329   1.941   2.299   3.338  0.1908 -0.0084  0.8515
 5639SOL    MW422330   2.008   2.334   3.296  0.2973 -0.1117 -0.5528
 5640SOL     OW22331   0.883   1.931   1.754  0.3797  0.0495 -0.4635
 5640SOL    HW222332   0.832   1.934   1.835  0.8270 -0.0519 -0.1724
 5640SOL    HW322333   0.921   1.844   1.753 -0.0134 -0.1238 -1.0354
 5640SOL    MW422334   0.881   1.920   1.765 -0.0579  0.4881  0.3335
 5641SOL     OW22335   3.456   4.615   2.810  0.6191 -0.2122 -0.3264
 5641SOL    HW222336   3.369   4.654   2.802  1.0044  0.5807 -0.7743
 5641SOL    HW322337   3.494   4.659   2.887  1.3185  0.8395 -1.2472
 5641SOL    MW422338   3.450   4.626   2.819 -0.6042 -0.2026  0.2974
 5642SOL     OW22339   6.091   5.342   4.407 -0.0387 -0.3793 -0.5504
 5642SOL    HW222340   6.163   5.279   4.406  1.6399  1.3058  1.9856
 5642SOL    HW322341   6.134   5.428   4.397 -1.9374  0.5573 -1.0935
 5642SOL    MW422342   6.106   5.345   4.406 -0.3565  0.2157  1.0220
 5643SOL     OW22343   2.723   5.464   1.056  0.0876  0.0484 -0.5103
 5643SOL    HW222344   2.682   5.421   0.981  0.7725 -0.3142 -0.6825
 5643SOL    HW322345   2.758   5.546   1.021  2.4388 -1.1415 -1.1580
 5643SOL    MW422346   2.722   5.470   1.041 -0.3478  0.4466 -0.0120
 5644SOL     OW22347   2.625   3.668   2.846 -0.6942  0.0316  0.3774
 5644SOL    HW222348   2.608   3.660   2.939 -0.3999  0.7329  0.5031
 5644SOL    HW322349   2.714   3.634   2.834 -0.2436  1.0724  0.5741
 5644SOL    MW422350   2.635   3.663   2.856 -0.4494 -0.0636  0.4213
 5645SOL     OW22351   0.634   6.211   0.821 -0.0184  0.3752 -0.1219
 5645SOL    HW222352   0.715   6.164   0.843 -0.7840 -0.8694  0.1617
 5645SOL    HW322353   0.603   6.169   0.741 -1.6524 -0.8895  1.0994
 5645SOL    MW422354   0.641   6.199   0.813  0.4817  0.1664  0.3790
 5646SOL     OW22355   1.333   4.175   5.436  0.0945 -0.3392 -0.0099
 5646SOL    HW222356   1.367   4.159   5.524  2.0893 -0.9134 -0.8350
 5646SOL    HW322357   1.408   4.210   5.387 -1.4359  1.8179 -1.0187
 5646SOL    MW422358   1.348   4.178   5.441 -0.7759 -0.4056 -0.3894
 5647SOL     OW22359   1.204   4.156   6.275  0.6581  0.5614  0.0413
 5647SOL    HW222360   1.145   4.179   6.347 -0.8744 -0.1257 -0.9350
 5647SOL    HW322361   1.249   4.077   6.305 -1.2944 -0.7863 -0.3971
 5647SOL    MW422362   1.202   4.149   6.288 -0.1671  0.0995 -0.1626
 5648SOL     OW22363   2.203   3.937   6.359  0.3763  0.5744 -0.6379
 5648SOL    HW222364   2.164   3.927   6.272  0.0217  1.2057 -0.5594
 5648SOL    HW322365   2.128   3.954   6.416  0.5709 -0.2414 -0.1414
 5648SOL    MW422366   2.188   3.938   6.355 -0.2172  0.0888 -0.5038
 5649SOL     OW22367   2.653   2.180   4.079  0.3218 -0.0087 -0.2437
 5649SOL    HW222368   2.739   2.223   4.088 -0.7307  1.9727  1.3608
 5649SOL    HW322369   2.645   2.128   4.159  0.4694 -1.1317 -0.9390
 5649SOL    MW422370   2.663   2.179   4.091 -0.6676 -0.2237 -0.1318
 5650SOL     OW22371   1.433   4.373   4.520 -0.6359 -0.5239  0.7330
 5650SOL    HW222372   1.398   4.452   4.563 -0.6443 -0.6898  1.0305
 5650SOL    HW322373   1.402   4.301   4.574  1.2034 -0.6175  1.7120
 5650SOL    MW422374   1.424   4.374   4.533 -0.3426 -0.2999 -0.1679
 5651SOL     OW22375   0.447   4.938   6.365 -0.5226  0.2049 -0.0023
 5651SOL    HW222376   0.483   5.014   6.410  0.7625 -0.4214  0.0732
 5651SOL    HW322377   0.436   4.966   6.274 -1.5133  0.9366  0.3179
 5651SOL    MW422378   0.450   4.952   6.359 -0.1098 -0.0926  0.6291
 5652SOL     OW22379   3.111   0.082   6.097 -0.2319  0.0553 -0.2481
 5652SOL    HW222380   3.082   0.044   6.014 -0.8501 -1.4435  0.6133
 5652SOL    HW322381   3.134   0.007   6.152  1.1712  1.0464  0.6054
 5652SOL    MW422382   3.110   0.067   6.093  0.7358 -0.3612 -0.2320
 5653SOL     OW22383   4.520   1.546   5.944 -0.2471 -0.2430 -0.2063
 5653SOL    HW222384   4.567   1.629   5.954 -0.4330 -0.3458  2.3565
 5653SOL    HW322385   4.428   1.572   5.935 -0.2730 -0.1472  0.2997
 5653SOL    MW422386   4.514   1.561   5.945  0.2204  0.2209  0.5953
 5654SOL     OW22387   4.467   0.060   5.934  0.2605 -0.1511 -0.2401
 5654SOL    HW222388   4.413   0.138   5.923 -1.5394 -1.5096 -1.5501
 5654SOL    HW322389   4.545   0.092   5.980 -0.3823  2.4070 -0.7532
 5654SOL    MW422390   4.471   0.075   5.939 -0.3573  0.4098  0.7197
 5655SOL     OW22391   4.832   6.391   1.837  0.3221  0.1851 -0.2187
 5655SOL    HW222392   4.758   6.347   1.794 -0.1787  1.1224 -0.3372
 5655SOL    HW322393   4.902   6.385   1.772 -0.4669  1.7026 -1.2764
 5655SOL    MW422394   4.831   6.384   1.823  0.7059  0.4185  0.1297
 5656SOL     OW22395   1.846   1.625   2.899 -0.2070 -0.0057  0.2160
 5656SOL    HW222396   1.935   1.594   2.917 -0.2800 -0.2862  0.1116
 5656SOL    HW322397   1.826   1.589   2.813 -0.2319  0.4924  0.0152
 5656SOL    MW422398   1.855   1.616   2.890  0.3561  0.9126  0.0763
 5657SOL     OW22399   2.492   0.348   3.505 -0.2849 -0.5933 -0.0066
 5657SOL    HW222400   2.403   0.364   3.474  0.8004  2.0278 -2.2569
 5657SOL    HW322401   2.506   0.255   3.491 -2.2214 -0.7870 -0.9396
 5657SOL    MW422402   2.482   0.338   3.499 -0.0530  0.7223  0.9024
 5658SOL     OW22403   1.508   5.329   5.894 -0.4608  0.1888  0.1538
 5658SOL    HW222404   1.505   5.279   5.812 -0.7341  0.5650 -0.0709
 5658SOL    HW322405   1.416   5.341   5.918 -0.3662 -0.3740  0.8013
 5658SOL    MW422406   1.496   5.324   5.886 -0.0743 -0.0895  0.1134
 5659SOL     OW22407   1.985   4.711   1.428 -0.0872  0.3089  0.2090
 5659SOL    HW222408   1.914   4.680   1.372  1.8430 -0.9732 -1.6660
 5659SOL    HW322409   1.971   4.665   1.511 -0.4052 -1.3921 -0.7500
 5659SOL    MW422410   1.974   4.701   1.432 -0.3123  0.4510 -0.2011
 5660SOL     OW22411   5.987   6.033   2.653 -0.3939  0.2597 -0.0768
 5660SOL    HW222412   5.894   6.048   2.634 -0.1678  0.3276 -1.1849
 5660SOL    HW322413   6.002   6.078   2.736 -1.8109 -1.3819  1.1490
 5660SOL    MW422414   5.977   6.041   2.661 -0.0893  0.1707  0.4364
 5661SOL     OW22415   6.007   2.404   4.746  0.4307  0.7896  0.6904
 5661SOL    HW222416   5.915   2.426   4.738 -0.0148 -0.9704  0.6242
 5661SOL    HW322417   6.053   2.488   4.732 -1.0744  1.4284 -0.7895
 5661SOL    MW422418   6.001   2.418   4.743  0.0237 -0.2843  0.6456
 5662SOL     OW22419   0.530   4.327   6.120 -0.7037 -0.9991 -0.1317
 5662SOL    HW222420   0.599   4.262   6.130  1.9232  1.7711  1.5948
 5662SOL    HW322421   0.559   4.381   6.046 -1.1939 -0.0057  0.3843
 5662SOL    MW422422   0.543   4.326   6.111  0.6274  0.0385 -0.4146
 5663SOL     OW22423   0.059   6.027   1.929  0.2123 -0.2822  0.4761
 5663SOL    HW222424   0.023   6.009   2.015 -0.6141 -1.3725 -0.0639
 5663SOL    HW322425  -0.016   6.054   1.876  0.8057  0.9553  0.2436
 5663SOL    MW422426   0.044   6.028   1.933 -0.0192  0.1721  0.0794
 5664SOL     OW22427   4.631   2.005   0.509  0.4188 -0.2481 -0.2444
 5664SOL    HW222428   4.695   2.075   0.509  2.1878 -1.7444  1.4067
 5664SOL    HW322429   4.623   1.980   0.601 -1.0942 -1.3863 -0.6440
 5664SOL    MW422430   4.638   2.011   0.521  0.6107 -0.0573  0.4530
 5665SOL     OW22431   5.633   5.534   4.842  0.0510  0.2229  0.0757
 5665SOL    HW222432   5.660   5.444   4.824 -1.3701 -1.0890  3.7079
 5665SOL    HW322433   5.590   5.563   4.761 -0.1630 -2.6083 -0.9230
 5665SOL    MW422434   5.631   5.526   4.829 -0.0228  0.5885 -0.0897
 5666SOL     OW22435   3.631   5.881   2.749  0.0354 -0.4337  0.3151
 5666SOL    HW222436   3.580   5.838   2.681 -0.1826  1.1047 -0.5202
 5666SOL    HW322437   3.579   5.957   2.774 -0.7365 -1.7815  3.4457
 5666SOL    MW422438   3.617   5.885   2.743 -0.1234  0.4665  0.2002
 5667SOL     OW22439   3.331   2.968   6.089 -0.2879 -0.2199 -0.1069
 5667SOL    HW222440   3.368   2.881   6.081  0.0504 -0.0152 -0.8581
 5667SOL    HW322441   3.315   2.996   5.999 -3.9360 -0.9772  0.1313
 5667SOL    MW422442   3.334   2.961   6.076  0.3090 -0.3388 -0.4049
 5668SOL     OW22443   3.902   1.810   0.991 -0.6510 -0.2607 -0.4545
 5668SOL    HW222444   3.813   1.812   0.956 -1.5532  0.5485  1.6842
 5668SOL    HW322445   3.916   1.720   1.019 -1.1733 -0.1874  0.0511
 5668SOL    MW422446   3.892   1.798   0.990 -0.3949  0.7500 -0.0632
 5669SOL     OW22447   5.516   6.225   2.824 -0.1500 -0.1140  0.0947
 5669SOL    HW222448   5.580   6.230   2.895  0.1017 -0.2282 -0.1208
 5669SOL    HW322449   5.564   6.256   2.746 -0.1707 -0.7766 -0.1896
 5669SOL    MW422450   5.531   6.230   2.823 -0.0266 -0.3749  0.2398
 5670SOL     OW22451   0.316   5.435   5.252  0.0604  0.3515 -0.6790
 5670SOL    HW222452   0.253   5.506   5.267 -0.1593 -0.1417  1.0062
 5670SOL    HW322453   0.331   5.398   5.339  2.1097 -0.0507 -1.1380
 5670SOL    MW422454   0.310   5.440   5.266  0.2122 -0.3181  1.1500
 5671SOL     OW22455   4.800   5.193   2.096  0.4128  0.2508  0.1320
 5671SOL    HW222456   4.781   5.249   2.021  2.3886  0.5059 -0.2291
 5671SOL    HW322457   4.854   5.247   2.153  0.3502 -0.5044  0.9235
 5671SOL    MW422458   4.805   5.208   2.094 -0.6232  0.0693 -0.0678
 5672SOL     OW22459   0.724   1.044   5.046  0.3527 -0.3583 -0.9064
 5672SOL    HW222460   0.681   0.961   5.066  1.5416 -0.9805 -0.8469
 5672SOL    HW322461   0.741   1.084   5.132 -3.0097  1.5026 -0.9345
 5672SOL    MW422462   0.721   1.039   5.060 -0.1903  0.4224 -0.1060
 5673SOL     OW22463   1.750   1.826   4.459 -0.1046 -0.1991 -0.1591
 5673SOL    HW222464   1.747   1.730   4.466  0.4178 -0.1423  1.0543
 5673SOL    HW322465   1.688   1.857   4.525  0.3406  0.3089  0.0282
 5673SOL    MW422466   1.741   1.817   4.469  0.2995 -0.1859  0.3249
 5674SOL     OW22467   1.315   6.070   5.370  0.7456  0.4886  0.4319
 5674SOL    HW222468   1.286   6.127   5.299  1.9395  1.3252  0.6001
 5674SOL    HW322469   1.240   6.012   5.386  0.2126  0.7459 -1.0257
 5674SOL    MW422470   1.301   6.070   5.363  0.4142 -0.2147 -0.3350
 5675SOL     OW22471   6.209   0.428   0.181 -0.4782 -0.3001  0.4888
 5675SOL    HW222472   6.168   0.343   0.163  1.0117 -0.9822  0.2225
 5675SOL    HW322473   6.200   0.439   0.276 -0.9237 -0.6133  0.4891
 5675SOL    MW422474   6.202   0.418   0.191  0.5882 -0.0080 -0.0151
 5676SOL     OW22475   1.810   0.182   2.863  0.0961  0.5090  0.5137
 5676SOL    HW222476   1.729   0.146   2.827  1.4891 -1.7066 -0.6545
 5676SOL    HW322477   1.840   0.114   2.924 -0.1025  2.3753  2.8296
 5676SOL    MW422478   1.803   0.168   2.867 -0.6112 -0.5084 -0.2829
 5677SOL     OW22479   3.371   3.883   3.828  0.3458  0.2234  0.0221
 5677SOL    HW222480   3.455   3.928   3.819  0.6184  0.5963  3.2430
 5677SOL    HW322481   3.383   3.826   3.904 -2.6176  1.1587  1.3136
 5677SOL    MW422482   3.384   3.882   3.837 -0.6536  0.6997  0.7205
 5678SOL     OW22483   4.257   1.333   2.564  0.5443 -0.3583 -0.4876
 5678SOL    HW222484   4.346   1.335   2.529 -0.0198  1.0287 -1.9329
 5678SOL    HW322485   4.267   1.355   2.657  1.7590 -0.9874 -0.4543
 5678SOL    MW422486   4.270   1.336   2.572 -0.1125  0.2681 -0.5190
 5679SOL     OW22487   2.534   2.369   5.543  0.0064  0.0135  0.0170
 5679SOL    HW222488   2.548   2.463   5.545 -1.7269  0.2892  1.8351
 5679SOL    HW322489   2.566   2.342   5.456  0.1673  2.2996 -0.6961
 5679SOL    MW422490   2.540   2.378   5.532  0.1695 -1.1594  0.4615
 5680SOL     OW22491   1.431   3.515   2.645  0.4035 -0.0046 -0.4322
 5680SOL    HW222492   1.450   3.421   2.640 -0.4774 -0.2136  0.0767
 5680SOL    HW322493   1.433   3.535   2.738 -0.4490  0.2601 -0.4620
 5680SOL    MW422494   1.434   3.505   2.656 -0.0141  0.3169 -0.2644
 5681SOL     OW22495   4.041   5.346   3.109 -0.3134 -0.0014  0.1930
 5681SOL    HW222496   4.007   5.298   3.185 -0.3664  0.0744  0.2165
 5681SOL    HW322497   4.110   5.402   3.145 -0.4581  0.1658  0.2143
 5681SOL    MW422498   4.046   5.347   3.124  0.1906 -0.2838 -0.4019
 5682SOL     OW22499   5.922   3.083   4.764 -0.5348 -0.0020  0.2313
 5682SOL    HW222500   5.852   3.129   4.809 -1.7173 -0.6688 -0.8600
 5682SOL    HW322501   5.893   2.992   4.761  0.6204 -0.3813  0.2173
 5682SOL    MW422502   5.909   3.077   4.769 -0.4936 -0.1513  0.2451
 5683SOL     OW22503   0.843   1.295   2.869 -0.2135 -0.1334  0.0475
 5683SOL    HW222504   0.804   1.351   2.802 -1.6608 -0.4838  0.5631
 5683SOL    HW322505   0.827   1.342   2.951 -1.1119 -1.1191  0.4436
 5683SOL    MW422506   0.836   1.309   2.871  0.0692  0.0747 -0.0014
 5684SOL     OW22507   0.275   6.089   5.840 -0.0421  0.2024  0.4490
 5684SOL    HW222508   0.237   6.003   5.823 -0.2879  0.8431 -3.0158
 5684SOL    HW322509   0.369   6.076   5.829 -0.2269  0.7053 -2.6452
 5684SOL    MW422510   0.282   6.076   5.837  0.2782 -0.1498 -0.8157
 5685SOL     OW22511   0.900   2.808   2.503 -0.1210 -0.1559  0.5316
 5685SOL    HW222512   0.888   2.880   2.565  1.8288 -0.0690  0.8636
 5685SOL    HW322513   0.882   2.846   2.418  1.2746  0.8636  0.6657
 5685SOL    MW422514   0.896   2.822   2.500  0.2744 -0.0936  0.3370
 5686SOL     OW22515   4.508   3.719   3.735  0.3524  0.0948 -0.0793
 5686SOL    HW222516   4.570   3.706   3.807 -0.2119  1.1781  0.6402
 5686SOL    HW322517   4.422   3.700   3.773  0.2550 -2.2008 -1.2822
 5686SOL    MW422518   4.505   3.715   3.749  0.1303 -0.4722 -0.5651
 5687SOL     OW22519   4.984   6.266   4.308 -0.2136  0.0968 -0.8253
 5687SOL    HW222520   4.998   6.237   4.217  2.3397 -0.7679 -0.2263
 5687SOL    HW322521   4.893   6.297   4.309 -0.1203  0.7731 -3.8365
 5687SOL    MW422522   4.974   6.266   4.296  0.0316  0.0517  0.4362
 5688SOL     OW22523   3.524   1.696   4.219  0.4248 -0.6264 -0.4810
 5688SOL    HW222524   3.440   1.691   4.265  0.9892 -0.5257  0.5894
 5688SOL    HW322525   3.527   1.617   4.166 -0.1795 -0.8340 -0.2143
 5688SOL    MW422526   3.513   1.685   4.218  0.0119 -0.3867 -0.3439
 5689SOL     OW22527   1.335   6.214   1.012 -0.0429 -0.0169  0.2160
 5689SOL    HW222528   1.395   6.240   0.942  0.7152 -0.7097  0.5957
 5689SOL    HW322529   1.312   6.123   0.991  0.5983 -0.3996  1.1462
 5689SOL    MW422530   1.340   6.206   1.000 -0.5653  0.9256 -0.3811
 5690SOL     OW22531   3.979   3.997   1.293 -0.0387  0.5839  0.6290
 5690SOL    HW222532   4.072   4.000   1.273 -0.2010  0.0579 -0.2816
 5690SOL    HW322533   3.945   4.080   1.260 -0.4095 -0.5217 -2.0410
 5690SOL    MW422534   3.987   4.008   1.286  0.7541  0.5444 -0.8054
 5691SOL     OW22535   3.073   1.407   2.842  0.3128 -0.2244 -0.1400
 5691SOL    HW222536   3.125   1.487   2.837  0.5412 -0.2158  1.6112
 5691SOL    HW322537   3.121   1.344   2.789  0.9698  0.3774 -0.2858
 5691SOL    MW422538   3.086   1.409   2.834  0.0078  0.3962 -0.2306
 5692SOL     OW22539   4.596   0.955   1.553 -0.1803  0.1584  0.5048
 5692SOL    HW222540   4.685   0.968   1.584  0.5925 -2.3940 -0.3520
 5692SOL    HW322541   4.552   1.039   1.567  1.4875  0.6292  3.7196
 5692SOL    MW422542   4.602   0.968   1.559 -0.5616  0.3516 -0.4678
 5693SOL     OW22543   5.429   2.446   3.910  0.4265 -0.2723  0.2652
 5693SOL    HW222544   5.434   2.369   3.967  0.6286 -0.9509 -0.6396
 5693SOL    HW322545   5.425   2.520   3.970  3.0606 -0.7872  1.1888
 5693SOL    MW422546   5.429   2.446   3.925 -0.3484 -0.2171  0.2463
 5694SOL     OW22547   3.845   3.386   0.424  0.0946 -0.8158 -0.1357
 5694SOL    HW222548   3.832   3.355   0.334  0.2019 -1.6794  0.1437
 5694SOL    HW322549   3.791   3.328   0.477  1.1616 -1.2353  0.5142
 5694SOL    MW422550   3.836   3.374   0.419 -0.5678 -0.0613  0.1554
 5695SOL     OW22551   3.467   4.816   1.375  0.0604 -0.0118 -0.9268
 5695SOL    HW222552   3.392   4.856   1.329  0.6419  2.3239 -0.0032
 5695SOL    HW322553   3.432   4.734   1.410 -2.1341  1.0396 -0.4324
 5695SOL    MW422554   3.452   4.811   1.373 -0.2471  0.2627 -0.1779
 5696SOL     OW22555   1.745   4.354   2.313 -0.0063 -0.0361 -0.4361
 5696SOL    HW222556   1.740   4.426   2.375  3.5628  0.8180 -0.8818
 5696SOL    HW322557   1.674   4.371   2.251 -0.6978  1.7699  0.7586
 5696SOL    MW422558   1.735   4.366   2.313  0.6533 -0.2806 -0.0734
 5697SOL     OW22559   5.159   3.333   5.691  0.3992  0.0017  0.1359
 5697SOL    HW222560   5.168   3.387   5.769 -2.4135 -1.2201  1.4745
 5697SOL    HW322561   5.152   3.396   5.619 -1.9503  1.5059  1.5299
 5697SOL    MW422562   5.159   3.348   5.691  0.4023  0.3922 -0.1149
 5698SOL     OW22563   1.274   3.112   5.580  0.0623 -0.0839 -0.1726
 5698SOL    HW222564   1.223   3.031   5.580 -1.7812  1.0313 -0.1192
 5698SOL    HW322565   1.284   3.134   5.672  0.0101  0.0877 -0.2079
 5698SOL    MW422566   1.269   3.104   5.592  0.0568  0.3324  0.1756
 5699SOL     OW22567   0.090   3.917   0.947 -0.1772  0.0471 -0.2556
 5699SOL    HW222568   0.051   3.873   0.872 -2.4826  0.1032  0.8407
 5699SOL    HW322569   0.085   4.010   0.925  1.2968 -0.0083 -0.9744
 5699SOL    MW422570   0.084   3.924   0.934  0.2664  0.4633  0.6177
 5700SOL     OW22571   6.060   2.407   6.407  0.0415  0.7091  0.0568
 5700SOL    HW222572   6.124   2.343   6.440  1.3025  1.0516 -1.5807
 5700SOL    HW322573   5.979   2.357   6.397  0.3606 -0.0389  1.0259
 5700SOL    MW422574   6.058   2.392   6.410 -0.1437 -0.3615 -0.2572
 5701SOL     OW22575   5.508   0.293   1.666 -0.5184 -0.3146 -0.0822
 5701SOL    HW222576   5.449   0.226   1.632 -0.4824 -0.3953  0.0156
 5701SOL    HW322577   5.588   0.246   1.689 -0.6478 -0.3098  0.3871
 5701SOL    MW422578   5.510   0.278   1.664 -0.1819 -0.0867 -0.3838
 5702SOL     OW22579   6.207   1.901   4.240 -0.4479 -0.4950  0.2056
 5702SOL    HW222580   6.193   1.919   4.333 -0.0111  0.6264  0.0593
 5702SOL    HW322581   6.267   1.969   4.210  1.0605 -2.0207 -0.4349
 5702SOL    MW422582   6.213   1.912   4.248  0.0834  0.1773 -0.2930
 5703SOL     OW22583   2.848   5.129   5.118 -0.2218  0.2322 -0.1062
 5703SOL    HW222584   2.765   5.083   5.103  0.8034 -2.6258  2.0436
 5703SOL    HW322585   2.905   5.099   5.048 -0.8808  2.1282 -1.5318
 5703SOL    MW422586   2.844   5.119   5.107  0.7023  0.1210  0.0152
 5704SOL     OW22587   4.768   1.683   5.635 -0.5544 -0.2774  0.5541
 5704SOL    HW222588   4.825   1.635   5.695 -0.5052 -0.0569  0.6854
 5704SOL    HW322589   4.684   1.639   5.642  0.4521 -3.0553 -2.4316
 5704SOL    MW422590   4.765   1.671   5.644  0.2686 -0.0410 -0.4440
 5705SOL     OW22591   0.059   5.709   4.622 -0.3123 -0.3631  0.0358
 5705SOL    HW222592   0.070   5.657   4.542 -0.4024 -0.0558 -0.1770
 5705SOL    HW322593  -0.034   5.701   4.643 -0.3975  0.0026 -0.1976
 5705SOL    MW422594   0.049   5.701   4.614  0.0382  0.0810  0.4820
 5706SOL     OW22595   4.570   5.851   1.508 -0.1797 -0.4787  0.3864
 5706SOL    HW222596   4.490   5.876   1.462 -0.4528 -3.7195 -1.2035
 5706SOL    HW322597   4.541   5.829   1.596 -0.6126  0.6287  0.5288
 5706SOL    MW422598   4.556   5.851   1.513  0.1035  0.0138 -0.6126
 5707SOL     OW22599   6.007   1.404   1.025  0.6025  0.9430 -0.3080
 5707SOL    HW222600   6.082   1.441   1.072  1.0566  1.0125 -1.0644
 5707SOL    HW322601   6.045   1.337   0.968 -0.3096 -1.4948  1.7492
 5707SOL    MW422602   6.022   1.400   1.023  0.1036  0.1425 -0.2910
 5708SOL     OW22603   5.491   2.930   1.028 -0.2322  0.5757 -0.7452
 5708SOL    HW222604   5.559   2.919   1.095 -1.9840 -0.4104  0.9996
 5708SOL    HW322605   5.452   3.015   1.047  0.2671  1.0097 -1.5668
 5708SOL    MW422606   5.495   2.940   1.039  0.2692 -0.0153 -0.6021
 5709SOL     OW22607   4.143   5.460   0.543 -0.3196  0.4041  0.2824
 5709SOL    HW222608   4.101   5.516   0.478 -1.6567 -1.9052 -0.9936
 5709SOL    HW322609   4.089   5.470   0.622 -0.9049  0.4542 -0.1199
 5709SOL    MW422610   4.130   5.469   0.545  0.3837 -0.2584  0.1898
 5710SOL     OW22611   4.133   2.097   0.680  0.2656  0.2310  0.6730
 5710SOL    HW222612   4.068   2.150   0.727 -0.1161  0.0958  0.3047
 5710SOL    HW322613   4.090   2.012   0.669 -0.3827  0.7920 -1.4889
 5710SOL    MW422614   4.118   2.093   0.685 -0.2570  0.3106 -0.2841
 5711SOL     OW22615   4.139   5.494   5.126 -0.2811 -0.6551  0.4219
 5711SOL    HW222616   4.213   5.435   5.138 -0.2341 -0.9625 -1.1936
 5711SOL    HW322617   4.069   5.457   5.180 -0.4779 -2.6230 -1.0769
 5711SOL    MW422618   4.140   5.481   5.135  0.1714 -0.0612  0.0223
 5712SOL     OW22619   2.758   1.385   4.761  0.2493 -0.4890  0.3119
 5712SOL    HW222620   2.741   1.335   4.680 -1.5608  0.3596  0.1283
 5712SOL    HW322621   2.730   1.474   4.741  2.1891  0.3499  1.0786
 5712SOL    MW422622   2.752   1.390   4.747  0.8021  0.5984 -0.9691
 5713SOL     OW22623   0.788   4.818   0.702  0.5021 -0.3626 -0.1293
 5713SOL    HW222624   0.837   4.784   0.627  1.0173  0.0219  0.0266
 5713SOL    HW322625   0.798   4.750   0.769  0.2134 -0.6131 -0.3398
 5713SOL    MW422626   0.796   4.804   0.701  0.2464 -0.2926 -0.3419
 5714SOL     OW22627   5.404   0.334   1.257  0.0882  0.2569  0.2712
 5714SOL    HW222628   5.478   0.366   1.309 -0.2274 -0.1599  0.9962
 5714SOL    HW322629   5.327   0.368   1.302 -0.1626  1.0683 -0.7364
 5714SOL    MW422630   5.404   0.343   1.270 -0.5578 -0.7858  0.2943
 5715SOL     OW22631   5.539   2.842   3.335 -0.1604 -0.1834 -0.2031
 5715SOL    HW222632   5.600   2.914   3.319 -0.7077  0.1195 -1.0106
 5715SOL    HW322633   5.519   2.807   3.248 -0.6545 -0.6715  0.0991
 5715SOL    MW422634   5.544   2.847   3.321 -0.4973 -0.0379 -0.1374
 5716SOL     OW22635   5.644   0.450   2.729  0.1846 -0.1188  0.1299
 5716SOL    HW222636   5.579   0.511   2.695 -1.3914 -2.3697 -1.2115
 5716SOL    HW322637   5.613   0.428   2.817 -0.8652 -1.0422 -0.4368
 5716SOL    MW422638   5.631   0.455   2.736 -0.2321  0.3583  0.1913
 5717SOL     OW22639   5.193   3.542   5.884  0.7939  0.3162 -0.4451
 5717SOL    HW222640   5.132   3.525   5.956 -1.4535  2.4519 -1.6532
 5717SOL    HW322641   5.270   3.581   5.926 -0.3161  1.1941  0.8763
 5717SOL    MW422642   5.195   3.545   5.899  0.2778  0.2878 -0.2351
 5718SOL     OW22643   4.832   3.354   3.131  0.6955 -0.5474  0.2786
 5718SOL    HW222644   4.770   3.364   3.059  0.6881 -1.1650  0.1891
 5718SOL    HW322645   4.855   3.261   3.130  0.1786 -0.7164  1.4963
 5718SOL    MW422646   4.827   3.343   3.122  0.0379 -0.0993  0.1558
 5719SOL     OW22647   0.412   5.403   4.676 -0.3101 -0.1272  0.7348
 5719SOL    HW222648   0.475   5.374   4.610 -0.4359  0.1224  0.5044
 5719SOL    HW322649   0.352   5.330   4.684 -0.8499  0.1989 -0.1256
 5719SOL    MW422650   0.413   5.390   4.668 -0.2267  0.3602 -0.2610
 5720SOL     OW22651   1.934   0.544   5.466 -0.3959 -0.0068 -0.0899
 5720SOL    HW222652   2.005   0.578   5.521 -0.7522  0.8791 -0.1662
 5720SOL    HW322653   1.864   0.524   5.528 -0.2967 -0.3310 -0.0792
 5720SOL    MW422654   1.934   0.546   5.481 -0.4119  0.0841 -0.4092
 5721SOL     OW22655   5.505   3.060   4.466  0.4171 -0.4296  0.7252
 5721SOL    HW222656   5.590   3.044   4.424  1.7292  0.3960  2.9141
 5721SOL    HW322657   5.441   3.022   4.405  2.1192  0.9580 -2.1327
 5721SOL    MW422658   5.508   3.053   4.452  0.3118  0.3261  1.0220
 5722SOL     OW22659   4.148   0.499   2.320 -0.8579  0.6473  0.0983
 5722SOL    HW222660   4.120   0.483   2.410  2.7110  1.0593  1.4175
 5722SOL    HW322661   4.165   0.411   2.285  1.8035  0.5708  1.3650
 5722SOL    MW422662   4.147   0.485   2.327  0.3774  0.4455 -0.0659
 5723SOL     OW22663   2.062   5.004   1.868  0.1844 -0.3982  0.0244
 5723SOL    HW222664   1.994   4.939   1.851  0.8138 -1.4471  1.3636
 5723SOL    HW322665   2.029   5.085   1.829 -2.4944 -0.5034  1.8661
 5723SOL    MW422666   2.049   5.006   1.860 -0.1032 -0.0314  0.0811
 5724SOL     OW22667   6.413   5.970   1.164 -0.0734 -0.0817 -0.7236
 5724SOL    HW222668   6.453   6.028   1.100 -2.2032  2.8193  0.3532
 5724SOL    HW322669   6.345   5.923   1.115  0.1364  0.0644 -1.1538
 5724SOL    MW422670   6.409   5.971   1.149 -0.7771 -0.5394 -0.0455
 5725SOL     OW22671   4.529   2.467   1.764 -0.1258  0.2474 -1.1025
 5725SOL    HW222672   4.568   2.536   1.819 -0.0608 -0.2469 -0.5235
 5725SOL    HW322673   4.574   2.477   1.679  1.6852 -0.6544 -0.3026
 5725SOL    MW422674   4.540   2.478   1.760 -0.5389 -0.0626  0.2348
 5726SOL     OW22675   1.964   1.228   3.460  0.1556  0.3337  0.6211
 5726SOL    HW222676   2.049   1.200   3.492 -0.3768  0.6944  2.4911
 5726SOL    HW322677   1.914   1.247   3.539 -1.5366  0.5131 -0.4405
 5726SOL    MW422678   1.968   1.227   3.474  0.3908  0.7646 -0.4853
 5727SOL     OW22679   0.532   2.660   0.652  0.3780 -0.2596 -0.3458
 5727SOL    HW222680   0.544   2.599   0.725 -0.1598 -1.1772 -1.0097
 5727SOL    HW322681   0.441   2.647   0.625  1.0330 -1.1596 -2.2578
 5727SOL    MW422682   0.521   2.650   0.658 -0.4921  0.6936 -0.2236
 5728SOL     OW22683   0.102   0.818   1.208 -0.5386  0.0525  0.0544
 5728SOL    HW222684   0.130   0.749   1.148  0.0665 -0.0006  0.3963
 5728SOL    HW322685   0.152   0.803   1.288 -1.7149 -0.1798  0.7656
 5728SOL    MW422686   0.112   0.807   1.210  0.4651 -0.2620  0.6455
 5729SOL     OW22687   5.303   1.610   3.531  0.0539  0.3055  0.0275
 5729SOL    HW222688   5.266   1.533   3.488  0.2570 -0.3532  0.9971
 5729SOL    HW322689   5.385   1.578   3.570 -0.1039  0.8945  0.8478
 5729SOL    MW422690   5.309   1.596   3.530  1.0915  0.1777  0.5021
 5730SOL     OW22691   0.807   4.983   1.737  0.5991 -0.1421  0.0496
 5730SOL    HW222692   0.762   5.037   1.802  0.9622 -2.4789  2.4183
 5730SOL    HW322693   0.741   4.966   1.670  0.5955  3.4232 -1.0268
 5730SOL    MW422694   0.793   4.987   1.737 -0.2342  0.0917 -0.1056
 5731SOL     OW22695   2.222   0.437   2.981 -0.0409 -0.2407  0.0635
 5731SOL    HW222696   2.289   0.493   3.021  0.2053  0.9242 -1.8621
 5731SOL    HW322697   2.150   0.496   2.963  0.1029 -0.5717 -1.7546
 5731SOL    MW422698   2.221   0.452   2.984  0.5247  0.4722  0.4687
 5732SOL     OW22699   3.605   0.128   5.037 -0.1793  0.0941 -0.0826
 5732SOL    HW222700   3.615   0.034   5.053  0.4082  0.2631  0.6158
 5732SOL    HW322701   3.692   0.157   5.010 -0.6541  0.2202 -1.5671
 5732SOL    MW422702   3.618   0.119   5.035 -0.2977 -0.2481 -0.1533
 5733SOL     OW22703   1.254   2.937   0.747  0.2817 -0.0769  0.0952
 5733SOL    HW222704   1.191   2.873   0.782  1.0874 -1.2273 -0.4740
 5733SOL    HW322705   1.208   2.976   0.672  0.0230 -0.4678  0.0460
 5733SOL    MW422706   1.239   2.933   0.742  0.0980  0.4655 -0.5585
 5734SOL     OW22707   3.970   1.065   4.917 -0.2171  0.2233 -0.1914
 5734SOL    HW222708   3.999   0.976   4.899 -0.6259 -0.2374  1.2526
 5734SOL    HW322709   4.046   1.120   4.898  0.9319 -0.7187  1.4615
 5734SOL    MW422710   3.984   1.061   4.912  0.5864 -0.7482  0.0116
 5735SOL     OW22711   0.125   1.159   0.490 -0.0394 -0.2323 -0.4820
 5735SOL    HW222712   0.077   1.192   0.415 -0.2513 -0.5903 -0.5016
 5735SOL    HW322713   0.155   1.072   0.464  0.0715 -0.2706 -0.2327
 5735SOL    MW422714   0.123   1.152   0.477  0.0335  0.0793 -0.2300
 5736SOL     OW22715   0.857   1.548   1.424 -0.9190  0.3493 -0.1463
 5736SOL    HW222716   0.869   1.641   1.444  0.1592  0.0494  0.7479
 5736SOL    HW322717   0.818   1.511   1.503  0.7368 -0.3405  0.4011
 5736SOL    MW422718   0.854   1.555   1.437  0.0353 -0.0844  0.0407
 5737SOL     OW22719   2.359   6.208   4.313  0.2309 -0.0375 -0.1120
 5737SOL    HW222720   2.348   6.219   4.219 -0.8839  0.1261  0.0207
 5737SOL    HW322721   2.274   6.175   4.344  0.8800 -1.0301  0.7002
 5737SOL    MW422722   2.346   6.205   4.305  0.3280  0.6727 -0.2778
 5738SOL     OW22723   6.294   0.075   1.187  0.2295 -0.8377 -0.0156
 5738SOL    HW222724   6.311   0.080   1.092  2.4874  0.3828  0.3556
 5738SOL    HW322725   6.298  -0.018   1.207 -3.5873 -1.4952 -1.5335
 5738SOL    MW422726   6.297   0.064   1.177 -0.2062  0.1153 -0.4168
 5739SOL     OW22727   0.277   3.219   6.241 -0.2433 -0.0152 -0.6323
 5739SOL    HW222728   0.194   3.175   6.258  1.2607 -2.9668 -0.1691
 5739SOL    HW322729   0.319   3.226   6.327  0.2155  0.9427 -0.9195
 5739SOL    MW422730   0.272   3.214   6.254  0.4439 -0.0431 -0.2203
 5740SOL     OW22731   3.131   4.499   2.277  0.1147 -0.1029  0.1909
 5740SOL    HW222732   3.130   4.403   2.279  1.7035 -0.1492  0.6020
 5740SOL    HW322733   3.166   4.521   2.191 -2.1155  0.2018 -0.7077
 5740SOL    MW422734   3.136   4.489   2.266 -0.6915  0.0158  0.1794
 5741SOL     OW22735   6.072   0.161   0.166 -0.3872  0.0242  0.3671
 5741SOL    HW222736   6.128   0.133   0.238 -0.6793 -3.0359 -0.4641
 5741SOL    HW322737   5.983   0.154   0.200 -0.4549  1.4335  0.5606
 5741SOL    MW422738   6.068   0.157   0.180  0.0121  0.2017  0.6774
 5742SOL     OW22739   5.646   1.265   0.756  0.3619 -0.1421 -0.3334
 5742SOL    HW222740   5.666   1.190   0.699 -0.5465  0.6612 -1.7956
 5742SOL    HW322741   5.649   1.340   0.697  0.4005  0.8658  0.9271
 5742SOL    MW422742   5.649   1.265   0.740 -0.6126 -0.1523 -0.5683
 5743SOL     OW22743   4.194   5.069   4.088 -0.0155  0.0381  0.0472
 5743SOL    HW222744   4.133   5.138   4.116 -1.2379 -1.1443  0.4197
 5743SOL    HW322745   4.191   5.073   3.992  0.3290  0.8251  0.0593
 5743SOL    MW422746   4.185   5.079   4.079  0.0154 -0.1837 -0.4193
 5744SOL     OW22747   1.805   2.489   2.513  0.2246  0.6080 -0.1355
 5744SOL    HW222748   1.723   2.446   2.536 -0.2773  0.2981 -2.2682
 5744SOL    HW322749   1.870   2.419   2.513 -0.3113  0.0392 -2.1849
 5744SOL    MW422750   1.802   2.474   2.516 -0.1801  0.0897  0.3045
 5745SOL     OW22751   3.814   2.929   0.144  0.9809  0.1745  0.1617
 5745SOL    HW222752   3.908   2.927   0.128  1.1073  0.0775  0.8965
 5745SOL    HW322753   3.793   3.021   0.162  1.2825 -0.0629  1.9264
 5745SOL    MW422754   3.823   2.941   0.144  0.1412  0.9029  0.8433
 5746SOL     OW22755   2.437   3.874   3.023 -0.2301 -0.1676  0.5046
 5746SOL    HW222756   2.501   3.918   2.968 -0.7434  0.3367  0.2985
 5746SOL    HW322757   2.479   3.792   3.048  0.5296  0.2001  0.4559
 5746SOL    MW422758   2.451   3.869   3.019  0.4240 -0.0463  0.2688
 5747SOL     OW22759   5.060   2.918   3.049 -0.5544  0.2812  0.1888
 5747SOL    HW222760   5.028   2.828   3.050  0.9077 -0.2645  1.0014
 5747SOL    HW322761   5.083   2.936   3.140  0.8535  0.8278 -0.2510
 5747SOL    MW422762   5.059   2.909   3.061 -0.0023 -0.6209  0.8105
 5748SOL     OW22763   2.976   6.286   2.520 -0.7805 -0.2068  0.7229
 5748SOL    HW222764   2.997   6.199   2.553 -1.0937 -0.5565  0.0140
 5748SOL    HW322765   3.025   6.292   2.437 -0.5612  0.3867  0.8920
 5748SOL    MW422766   2.985   6.275   2.513  0.4261  0.1122 -0.2018
 5749SOL     OW22767   3.417   1.170   3.379 -0.7490  0.7737  0.5068
 5749SOL    HW222768   3.438   1.252   3.423  1.4098  0.2509  0.5545
 5749SOL    HW322769   3.404   1.194   3.287  0.7111  1.0981  0.3610
 5749SOL    MW422770   3.418   1.184   3.372 -0.1818  0.4263  0.0230
 5750SOL     OW22771   4.096   2.621   5.252  0.3765 -0.4305 -0.9419
 5750SOL    HW222772   4.139   2.598   5.334 -0.4805  1.3731  0.0738
 5750SOL    HW322773   4.159   2.678   5.207  0.1331  0.0117 -0.7196
 5750SOL    MW422774   4.110   2.625   5.257  0.0249 -0.6321 -0.5516
 5751SOL     OW22775   3.321   2.096   2.731 -0.4340 -0.4171 -0.5677
 5751SOL    HW222776   3.254   2.030   2.749  0.3787 -1.3165 -0.7806
 5751SOL    HW322777   3.278   2.159   2.674 -1.7731  0.2097  1.0482
 5751SOL    MW422778   3.307   2.095   2.726  0.0550  0.2445  0.6422
 5752SOL     OW22779   0.168   4.531   6.189  0.6246  0.0552 -0.3145
 5752SOL    HW222780   0.165   4.521   6.094  3.4655 -0.5435 -0.4318
 5752SOL    HW322781   0.190   4.444   6.222 -2.6819 -0.3446  1.1955
 5752SOL    MW422782   0.171   4.519   6.180  0.6701 -0.2554  0.2493
 5753SOL     OW22783   3.062   4.279   4.700 -0.3267 -0.6853 -0.0385
 5753SOL    HW222784   2.993   4.251   4.760 -0.7948 -0.0409 -0.2567
 5753SOL    HW322785   3.125   4.207   4.699 -1.0179 -1.2995  0.1335
 5753SOL    MW422786   3.061   4.266   4.708 -0.3453 -0.3786 -0.3017
 5754SOL     OW22787   1.932   5.360   3.545  0.5531 -1.0812  0.0466
 5754SOL    HW222788   1.863   5.362   3.612  1.0347  0.5116  0.5334
 5754SOL    HW322789   1.946   5.452   3.522  2.2414 -1.4014 -0.3433
 5754SOL    MW422790   1.924   5.373   3.551  0.0708  0.7720  0.1027
 5755SOL     OW22791   1.690   2.185   0.700  0.5399  0.2602 -0.0096
 5755SOL    HW222792   1.675   2.225   0.786  1.7545  2.2815 -0.6719
 5755SOL    HW322793   1.602   2.175   0.663  0.1605  2.5350  0.1438
 5755SOL    MW422794   1.676   2.189   0.706 -0.7539 -0.1802  0.3346
 5756SOL     OW22795   2.750   0.010   5.697  0.1514 -0.0861  0.3302
 5756SOL    HW222796   2.830  -0.012   5.745  0.4606 -0.3287 -0.2909
 5756SOL    HW322797   2.703   0.069   5.756  0.3517 -0.6609  1.0836
 5756SOL    MW422798   2.754   0.015   5.711  0.2660 -0.4072  0.4652
 5757SOL     OW22799   0.487   4.010   2.503 -0.0055 -0.0690  0.1581
 5757SOL    HW222800   0.582   4.017   2.513  0.1005 -0.6734 -0.3535
 5757SOL    HW322801   0.475   3.955   2.426 -0.7619  1.3668 -0.8054
 5757SOL    MW422802   0.498   4.004   2.494 -0.2849  0.3981  0.2918
 5758SOL     OW22803   5.195   4.293   4.213  0.4753 -0.6933  0.2228
 5758SOL    HW222804   5.187   4.363   4.278  4.3700  2.3590 -2.1323
 5758SOL    HW322805   5.249   4.227   4.256 -0.6822 -0.9176  1.4321
 5758SOL    MW422806   5.201   4.293   4.228  0.6817  0.5994  0.5235
 5759SOL     OW22807   1.769   5.354   1.941  0.1320 -0.9328 -0.3487
 5759SOL    HW222808   1.716   5.432   1.929 -1.4140 -1.6589  1.3095
 5759SOL    HW322809   1.823   5.373   2.018  0.8986 -0.9456 -0.8655
 5759SOL    MW422810   1.769   5.367   1.950  0.4453 -0.0592 -0.2387
 5760SOL     OW22811   5.293   5.076   2.675 -0.0890 -0.7200 -0.5463
 5760SOL    HW222812   5.227   5.132   2.717 -0.1678  0.2685 -1.8951
 5760SOL    HW322813   5.258   4.988   2.683 -1.4467 -0.2480 -0.9516
 5760SOL    MW422814   5.279   5.072   2.681  0.2902 -0.6326 -0.3486
 5761SOL     OW22815   5.880   2.366   3.239  0.5454 -0.4946  0.0870
 5761SOL    HW222816   5.894   2.318   3.320 -1.1987 -0.6105  0.3525
 5761SOL    HW322817   5.846   2.451   3.266  0.1236 -0.4643 -0.5125
 5761SOL    MW422818   5.878   2.371   3.253 -0.0880 -0.4848 -0.5477
 5762SOL     OW22819   5.204   2.792   4.940  0.7192  0.2300  0.1613
 5762SOL    HW222820   5.218   2.698   4.938  0.8163  0.2578 -1.5049
 5762SOL    HW322821   5.112   2.804   4.917  1.2897  0.6135 -2.1453
 5762SOL    MW422822   5.194   2.781   4.937  0.6376 -0.3848 -0.3937
 5763SOL     OW22823   3.640   5.661   2.304  0.3926 -0.2890 -0.0771
 5763SOL    HW222824   3.587   5.613   2.241  1.0899 -0.1632 -0.7658
 5763SOL    HW322825   3.726   5.667   2.264  0.7521  0.1103  0.7283
 5763SOL    MW422826   3.644   5.655   2.291  0.1404 -0.1604  0.5274
 5764SOL     OW22827   0.032   2.895   0.989 -0.0564  0.1596  0.2502
 5764SOL    HW222828  -0.016   2.834   0.933  1.1682  0.3602 -1.0889
 5764SOL    HW322829   0.120   2.897   0.951  0.3379  1.6022  1.1861
 5764SOL    MW422830   0.037   2.887   0.977 -0.1005  0.1913  0.1693
 5765SOL     OW22831   3.484   5.200   4.880  0.5860 -0.8128 -0.2107
 5765SOL    HW222832   3.579   5.215   4.883  0.4872  0.7846 -2.5105
 5765SOL    HW322833   3.446   5.288   4.884 -0.7222 -1.3333 -0.8366
 5765SOL    MW422834   3.492   5.214   4.881 -0.2108  0.5469  0.0925
 5766SOL     OW22835   4.016   1.701   5.447 -0.0921  0.5266  0.0179
 5766SOL    HW222836   3.986   1.618   5.408 -0.2861  0.1788  0.8967
 5766SOL    HW322837   3.976   1.768   5.392  0.6256  0.0570 -1.1391
 5766SOL    MW422838   4.007   1.699   5.434 -0.4004 -0.0459 -0.3620
 5767SOL     OW22839   3.758   4.236   6.398  0.3163  0.9525  0.4370
 5767SOL    HW222840   3.829   4.299   6.384  1.3146 -0.1939  0.2601
 5767SOL    HW322841   3.801   4.158   6.431 -0.7784 -0.0078 -0.3254
 5767SOL    MW422842   3.773   4.234   6.400  0.2882  0.0163 -0.1657
 5768SOL     OW22843   4.203   3.398   3.182 -0.0179 -0.1027 -0.2287
 5768SOL    HW222844   4.252   3.419   3.103  1.8720  2.1024  1.3848
 5768SOL    HW322845   4.112   3.416   3.159  0.3020 -0.7541 -2.2301
 5768SOL    MW422846   4.198   3.403   3.169  0.2615  0.3058  0.4910
 5769SOL     OW22847   5.041   0.832   4.734  0.2956 -0.2482 -0.1133
 5769SOL    HW222848   5.066   0.757   4.679 -1.4687 -1.8730  1.2012
 5769SOL    HW322849   5.002   0.894   4.672  0.8161 -0.8652 -1.0891
 5769SOL    MW422850   5.039   0.830   4.718  0.6742 -0.0463  0.0031
 5770SOL     OW22851   3.753   2.034   0.656  0.1225  0.2981  0.2154
 5770SOL    HW222852   3.828   2.008   0.602  0.2776  1.0810  0.0416
 5770SOL    HW322853   3.677   2.013   0.603  0.2301 -0.1135  0.2201
 5770SOL    MW422854   3.753   2.028   0.642  0.0335 -0.0646 -0.4075
 5771SOL     OW22855   0.329   1.436   3.601 -0.3550 -0.5003  0.4001
 5771SOL    HW222856   0.250   1.420   3.652 -0.6652  3.9343  1.6965
 5771SOL    HW322857   0.367   1.515   3.639  2.1021  0.3067 -3.1902
 5771SOL    MW422858   0.324   1.444   3.612 -0.0086  0.3807 -0.3730
 5772SOL     OW22859   6.189   4.453   3.703  0.1890 -0.4592 -0.0694
 5772SOL    HW222860   6.185   4.359   3.715  1.9948 -0.6429 -0.5875
 5772SOL    HW322861   6.195   4.488   3.793  0.6320 -0.9231  0.0861
 5772SOL    MW422862   6.189   4.446   3.717 -0.0487  0.7579 -0.5388
 5773SOL     OW22863   4.930   5.312   2.316  0.2874  0.1350 -0.1660
 5773SOL    HW222864   4.858   5.287   2.373  1.1224  0.8638  1.2635
 5773SOL    HW322865   4.997   5.245   2.331  0.4614  0.2547 -0.3983
 5773SOL    MW422866   4.929   5.300   2.325  0.2167 -0.0123 -0.1677
 5774SOL     OW22867   5.833   0.727   0.497 -0.0007  0.4498  0.3047
 5774SOL    HW222868   5.848   0.780   0.574 -0.8271  0.4337  0.4806
 5774SOL    HW322869   5.845   0.787   0.423 -1.5960  1.0692  0.5168
 5774SOL    MW422870   5.836   0.742   0.497  0.0009  0.3197  0.3465
 5775SOL     OW22871   4.377   3.367   2.930 -0.5917 -0.0326  0.2803
 5775SOL    HW222872   4.467   3.342   2.946 -0.9558 -0.7985  1.2569
 5775SOL    HW322873   4.370   3.377   2.835  0.2629 -0.9405  0.1144
 5775SOL    MW422874   4.388   3.365   2.920  0.4843 -0.1553 -0.1492
 5776SOL     OW22875   0.147   5.149   5.952  0.2067 -0.4374  0.1768
 5776SOL    HW222876   0.106   5.173   6.036  2.0718 -1.1047  1.3553
 5776SOL    HW322877   0.120   5.059   5.937 -1.8673  0.3486 -1.0966
 5776SOL    MW422878   0.138   5.140   5.961 -0.1746  0.5309  0.1291
 5777SOL     OW22879   0.321   0.238   1.458 -0.6675  0.6262  0.0553
 5777SOL    HW222880   0.351   0.148   1.465 -1.0811  0.5852  2.0867
 5777SOL    HW322881   0.365   0.272   1.380 -0.0323 -1.1340 -0.4088
 5777SOL    MW422882   0.331   0.231   1.449 -0.1888 -0.1199 -0.0464
 5778SOL     OW22883   5.971   5.262   0.499  0.4405 -1.0213  0.6967
 5778SOL    HW222884   5.979   5.210   0.579  0.8486 -1.9496  0.0659
 5778SOL    HW322885   5.923   5.206   0.438  3.4192 -1.9372 -1.0161
 5778SOL    MW422886   5.966   5.248   0.502  0.5992  0.5758  0.4817
 5779SOL     OW22887   5.119   5.841   1.518  0.1901  0.4142 -0.8438
 5779SOL    HW222888   5.077   5.848   1.604 -0.3404  1.7612 -1.1843
 5779SOL    HW322889   5.142   5.931   1.496  0.5504  0.0497 -2.0032
 5779SOL    MW422890   5.116   5.854   1.527  0.3412  0.3102  0.0830
 5780SOL     OW22891   3.212   4.456   0.862  0.3252  0.1129 -0.6268
 5780SOL    HW222892   3.263   4.413   0.794 -1.3542 -0.1582 -1.7768
 5780SOL    HW322893   3.125   4.416   0.857  0.0840  0.2094  1.5787
 5780SOL    MW422894   3.207   4.445   0.852 -0.5272 -0.0136 -0.0091
 5781SOL     OW22895   0.358   5.761   3.410  0.6351  0.4701  0.6256
 5781SOL    HW222896   0.418   5.694   3.376  0.3565  0.2541  0.5504
 5781SOL    HW322897   0.411   5.812   3.471  0.9691  0.4565  0.3488
 5781SOL    MW422898   0.373   5.759   3.414  0.0609  0.3693 -0.2477
 5782SOL     OW22899   5.825   6.042   3.780 -0.0058 -0.2956 -0.3550
 5782SOL    HW222900   5.899   6.037   3.840 -0.3211 -1.6960 -0.0592
 5782SOL    HW322901   5.813   6.136   3.765  1.0766  0.0024  0.5132
 5782SOL    MW422902   5.833   6.054   3.786 -0.6349  0.1958  0.4868
 5783SOL     OW22903   0.110   5.351   0.535  0.1212  0.5032 -0.5484
 5783SOL    HW222904   0.121   5.333   0.628  0.3727  0.5260 -0.5715
 5783SOL    HW322905   0.065   5.436   0.532 -3.5953 -1.3086 -0.4146
 5783SOL    MW422906   0.106   5.360   0.547 -0.2536  0.3896  0.1487
 5784SOL     OW22907   3.975   2.339   5.784  0.4351 -0.2376 -0.1846
 5784SOL    HW222908   3.921   2.407   5.743  0.1624 -0.3861 -0.0752
 5784SOL    HW322909   3.973   2.266   5.722 -0.5814 -0.7368  0.4183
 5784SOL    MW422910   3.968   2.339   5.770 -0.0472  0.5515  0.1085
 5785SOL     OW22911   2.546   5.074   0.983 -0.2448  0.0573  0.3111
 5785SOL    HW222912   2.544   5.000   0.922 -0.3076  0.9395 -0.8019
 5785SOL    HW322913   2.456   5.107   0.981  0.2822  1.5202 -0.9684
 5785SOL    MW422914   2.534   5.068   0.975 -0.9002  0.0567 -0.0711
 5786SOL     OW22915   1.706   1.111   4.327  0.1213  0.0859  0.1412
 5786SOL    HW222916   1.664   1.027   4.344  0.5767 -0.1725  0.0187
 5786SOL    HW322917   1.688   1.163   4.405 -2.8578  1.0026 -1.0131
 5786SOL    MW422918   1.698   1.106   4.339 -0.0738 -0.6579 -0.1985
 5787SOL     OW22919   4.139   5.997   2.952 -0.3823  0.0860  0.3492
 5787SOL    HW222920   4.110   6.084   2.925  1.7069  0.5993 -0.4331
 5787SOL    HW322921   4.132   5.944   2.873  3.5232  1.0160 -0.8879
 5787SOL    MW422922   4.134   6.002   2.938  0.1021 -0.0426 -0.2693
 5788SOL     OW22923   4.988   2.072   6.225  0.2295  0.4035 -0.1540
 5788SOL    HW222924   4.996   2.105   6.135  2.4016 -1.4382 -0.7185
 5788SOL    HW322925   5.025   2.142   6.279  1.4829  0.4115 -0.9855
 5788SOL    MW422926   4.994   2.086   6.220  0.1659 -0.5571 -0.5522
 5789SOL     OW22927   5.973   0.697   6.254  0.5102  0.4733  0.0714
 5789SOL    HW222928   5.986   0.639   6.329  1.8514 -1.0802 -1.2910
 5789SOL    HW322929   5.880   0.685   6.231  0.9130 -1.8887 -0.6790
 5789SOL    MW422930   5.962   0.687   6.261 -0.4553 -0.1366 -0.1639
 5790SOL     OW22931   6.406   1.382   5.407 -0.6453 -0.2639 -0.1843
 5790SOL    HW222932   6.344   1.329   5.457 -1.0380 -0.0546 -0.4480
 5790SOL    HW322933   6.454   1.432   5.474 -0.8748 -0.3029  0.0088
 5790SOL    MW422934   6.404   1.382   5.422  0.2338  0.4301 -0.2956
 5791SOL     OW22935   5.001   5.365   3.672 -0.3511  0.2857  0.5542
 5791SOL    HW222936   4.957   5.428   3.614 -0.0933  1.4521  1.5837
 5791SOL    HW322937   4.933   5.338   3.734  0.2381  1.8687  1.9667
 5791SOL    MW422938   4.986   5.370   3.673  0.6349 -0.1904  0.0542
 5792SOL     OW22939   2.864   0.456   2.468  0.5800  0.1501  0.8358
 5792SOL    HW222940   2.837   0.506   2.391  1.0989 -0.6617  0.1144
 5792SOL    HW322941   2.958   0.472   2.475  0.8198 -0.9707  0.3960
 5792SOL    MW422942   2.873   0.465   2.459 -0.1942  0.1091 -0.2129
 5793SOL     OW22943   4.248   1.188   3.880 -0.4788 -0.5905 -0.1704
 5793SOL    HW222944   4.223   1.271   3.840 -0.6141  0.0137  1.1372
 5793SOL    HW322945   4.204   1.122   3.826  0.6775  0.0557 -2.0367
 5793SOL    MW422946   4.239   1.190   3.867 -0.5466 -0.1723 -0.0008
 5794SOL     OW22947   5.180   6.374   0.293  0.2162  0.2102  0.2303
 5794SOL    HW222948   5.116   6.433   0.254  0.1390 -0.8029 -1.2364
 5794SOL    HW322949   5.218   6.327   0.219  0.4843 -1.3662  1.3195
 5794SOL    MW422950   5.176   6.376   0.278 -0.2021 -0.3925 -0.3726
 5795SOL     OW22951   4.190   3.940   0.594 -0.1136  0.0553  0.7428
 5795SOL    HW222952   4.255   3.972   0.532 -1.5279 -2.7088 -2.4941
 5795SOL    HW322953   4.238   3.878   0.649  0.6668  0.6352  0.7286
 5795SOL    MW422954   4.205   3.936   0.593  0.1863 -0.1754  0.7523
 5796SOL     OW22955   6.359   6.169   5.867 -0.1342  0.7003 -0.1132
 5796SOL    HW222956   6.397   6.083   5.850 -0.8072  0.4209 -0.2655
 5796SOL    HW322957   6.287   6.176   5.803 -0.2892  1.2355  0.1144
 5796SOL    MW422958   6.354   6.159   5.856  0.0627  0.0909  0.7797
 5797SOL     OW22959   4.859   1.047   5.880 -0.1124  0.5968  0.4083
 5797SOL    HW222960   4.801   1.012   5.948 -0.9422  2.8198  0.9282
 5797SOL    HW322961   4.885   1.133   5.912 -1.1624  2.0930 -2.3865
 5797SOL    MW422962   4.855   1.054   5.893  0.4779  0.2766 -0.1814
 5798SOL     OW22963   3.145   3.908   4.942  0.1955  0.4038  0.1952
 5798SOL    HW222964   3.162   3.814   4.937  0.7030  0.4624  0.6705
 5798SOL    HW322965   3.051   3.916   4.928  0.3904 -0.0111 -1.6342
 5798SOL    MW422966   3.135   3.897   4.940 -0.1347 -0.2199 -0.5097
 5799SOL     OW22967   5.095   2.290   1.694  0.0211  0.4692  0.4584
 5799SOL    HW222968   5.136   2.216   1.649 -0.7319  1.3207 -1.7687
 5799SOL    HW322969   5.159   2.316   1.759  0.9074 -1.2554  0.3444
 5799SOL    MW422970   5.109   2.284   1.696  0.8843  0.1084 -0.4022
 5800SOL     OW22971   5.061   2.027   0.767  0.7368 -0.5869  0.1077
 5800SOL    HW222972   5.025   1.989   0.848  1.0908 -0.7639  0.1850
 5800SOL    HW322973   5.114   1.956   0.729  0.4546 -0.5528 -0.3550
 5800SOL    MW422974   5.063   2.013   0.773 -0.7109  0.1728 -0.4835
 5801SOL     OW22975   3.586   2.458   0.302  0.6751  0.1791  0.2009
 5801SOL    HW222976   3.551   2.445   0.214  1.1493  1.3173 -0.1705
 5801SOL    HW322977   3.585   2.371   0.341 -0.7582 -0.1373 -0.4633
 5801SOL    MW422978   3.581   2.445   0.296  0.0979 -0.0850  0.0683
 5802SOL     OW22979   5.684   5.985   5.349  1.1482  0.1588 -0.4081
 5802SOL    HW222980   5.688   5.903   5.399  0.0200 -1.4536 -2.7908
 5802SOL    HW322981   5.610   6.032   5.388  1.2406 -0.3430  0.4095
 5802SOL    MW422982   5.675   5.981   5.361  0.0681 -0.2481  0.1424
 5803SOL     OW22983   2.791   0.243   2.815 -0.1997  0.4632 -0.0049
 5803SOL    HW222984   2.740   0.238   2.734 -0.2175  1.0753 -0.0359
 5803SOL    HW322985   2.832   0.157   2.823 -0.8015  0.1419 -0.2659
 5803SOL    MW422986   2.789   0.231   2.805  0.0416 -0.4973  0.0610
 5804SOL     OW22987   2.144   1.749   6.140 -0.4032  0.1332  0.4732
 5804SOL    HW222988   2.203   1.823   6.126 -0.0827 -0.1953  0.0644
 5804SOL    HW322989   2.076   1.783   6.198 -1.0868  1.1755 -0.9054
 5804SOL    MW422990   2.143   1.763   6.146 -0.2367  0.1486 -0.1603
 5805SOL     OW22991   1.063   2.996   5.840 -0.3851 -0.0026 -1.2084
 5805SOL    HW222992   1.060   3.022   5.933 -1.2204 -1.7415 -0.7058
 5805SOL    HW322993   0.972   3.003   5.811  0.0102  1.4004 -2.1880
 5805SOL    MW422994   1.051   3.000   5.849 -0.3597  0.2169 -0.6983
 5806SOL     OW22995   4.368   4.938   0.730 -0.0820 -0.6531  0.2274
 5806SOL    HW222996   4.398   5.028   0.740 -0.2748 -0.6671  0.9799
 5806SOL    HW322997   4.357   4.906   0.819 -0.2479 -1.3467 -0.0322
 5806SOL    MW422998   4.371   4.945   0.743  0.0782  0.1715  0.2429
 5807SOL     OW22999   2.799   4.496   3.604 -0.0020 -0.3947  0.1179
 5807SOL    HW223000   2.774   4.444   3.680 -0.4463 -1.7204 -0.8704
 5807SOL    HW323001   2.783   4.586   3.629  0.4696 -0.7419  1.7993
 5807SOL    MW423002   2.794   4.501   3.617  0.0927 -0.0898 -0.1672
 5808SOL     OW23003   3.230   1.222   5.935 -0.1890  0.3605 -0.1236
 5808SOL    HW223004   3.152   1.196   5.984  1.0656 -0.0263  1.7833
 5808SOL    HW323005   3.271   1.139   5.909  1.8580  0.2987  2.7677
 5808SOL    MW423006   3.226   1.208   5.938 -0.8025  0.5153 -1.0192
 5809SOL     OW23007   1.543   0.731   5.668  0.4322  0.3963  0.3273
 5809SOL    HW223008   1.481   0.658   5.666  0.9267 -0.0238  0.1006
 5809SOL    HW323009   1.508   0.794   5.604  0.4912 -0.0510 -0.1497
 5809SOL    MW423010   1.530   0.730   5.659 -0.0171  0.2402  0.0214
 5810SOL     OW23011   1.965   3.601   3.344 -0.2968 -0.1396 -0.1601
 5810SOL    HW223012   1.984   3.684   3.387 -0.8469 -0.0891 -0.0122
 5810SOL    HW323013   1.927   3.546   3.413  1.1422 -0.9231  0.0479
 5810SOL    MW423014   1.962   3.605   3.359 -0.0715 -0.0430 -0.2555
 5811SOL     OW23015   1.114   4.545   2.833  0.4396 -0.4677  0.0963
 5811SOL    HW223016   1.113   4.503   2.919  0.1420 -0.9679 -0.1454
 5811SOL    HW323017   1.040   4.505   2.786  1.5938 -1.4528 -0.9736
 5811SOL    MW423018   1.104   4.534   2.838 -0.0062  0.1693 -0.2429
 5812SOL     OW23019   3.805   1.124   4.241 -0.7537  0.4369 -0.0613
 5812SOL    HW223020   3.890   1.163   4.255 -0.6314  0.5148 -0.9495
 5812SOL    HW323021   3.774   1.100   4.328 -0.0425  0.8551  0.3079
 5812SOL    MW423022   3.812   1.126   4.254  0.7979 -0.2586 -0.3322
 5813SOL     OW23023   6.050   0.605   0.708 -0.2191 -0.0363 -0.4972
 5813SOL    HW223024   6.064   0.588   0.615  0.3563 -1.0312 -0.2438
 5813SOL    HW323025   6.135   0.587   0.749 -0.8424 -1.0990  0.4064
 5813SOL    MW423026   6.064   0.600   0.701 -0.2892  0.2186  0.2177
 5814SOL     OW23027   1.302   3.783   2.057  0.2203 -0.0057  0.1886
 5814SOL    HW223028   1.302   3.716   2.126 -0.0566  0.3536  0.5377
 5814SOL    HW323029   1.231   3.757   1.998  2.6550 -2.3638 -1.9856
 5814SOL    MW423030   1.293   3.770   2.058 -0.1698  0.0415  0.4635
 5815SOL     OW23031   5.454   1.773   4.068  0.1780 -0.3407  0.1560
 5815SOL    HW223032   5.549   1.761   4.071  0.1333 -0.5048  1.4756
 5815SOL    HW323033   5.419   1.708   4.129 -0.7669 -0.1238 -0.1374
 5815SOL    MW423034   5.462   1.763   4.077 -0.0086 -0.0607 -0.6271
 5816SOL     OW23035   1.757   1.511   2.667  0.0797 -0.1896  0.3566
 5816SOL    HW223036   1.767   1.577   2.598  0.5923 -1.4569 -0.8309
 5816SOL    HW323037   1.669   1.525   2.701 -0.1566  0.5107 -0.5041
 5816SOL    MW423038   1.747   1.522   2.663  0.0413 -0.0883 -0.1026
 5817SOL     OW23039   3.522   4.708   3.635  0.3033 -0.2794  0.1345
 5817SOL    HW223040   3.494   4.676   3.549 -0.6335  1.5612 -0.2979
 5817SOL    HW323041   3.517   4.631   3.692 -2.1396 -0.8703 -0.7478
 5817SOL    MW423042   3.518   4.693   3.631  0.4128 -0.0579  0.0121
 5818SOL     OW23043   1.312   1.556   4.312  0.1173  0.3307  0.0880
 5818SOL    HW223044   1.345   1.593   4.394  0.6351 -1.9152  0.9688
 5818SOL    HW323045   1.229   1.515   4.336  1.0063 -1.6988 -0.0766
 5818SOL    MW423046   1.305   1.555   4.326  0.4307 -0.1993 -0.3191
 5819SOL     OW23047   2.320   2.916   2.692 -0.0821 -0.1072  0.2032
 5819SOL    HW223048   2.391   2.958   2.739  1.3663 -1.3877 -0.7246
 5819SOL    HW323049   2.263   2.988   2.663 -0.2524  0.7924  2.6044
 5819SOL    MW423050   2.322   2.931   2.694 -0.3968 -0.0574  0.0823
 5820SOL     OW23051   4.052   5.168   0.667 -0.3777 -0.5083 -0.1375
 5820SOL    HW223052   3.957   5.176   0.661 -0.3449  0.8741  0.6322
 5820SOL    HW323053   4.085   5.243   0.618  0.2405  0.2257  1.3274
 5820SOL    MW423054   4.044   5.179   0.660 -0.4085 -0.0898 -0.1816
 5821SOL     OW23055   3.425   2.575   3.595  0.0615  0.3898  0.1120
 5821SOL    HW223056   3.398   2.557   3.685 -1.6409  1.9028 -0.0512
 5821SOL    HW323057   3.358   2.533   3.541  0.5331  0.3266 -0.4408
 5821SOL    MW423058   3.413   2.567   3.599 -0.4263 -0.1521  0.3171
 5822SOL     OW23059   3.712   1.316   6.104 -0.1654 -0.1864  0.0010
 5822SOL    HW223060   3.686   1.329   6.013 -1.7638 -1.6942  0.1854
 5822SOL    HW323061   3.773   1.387   6.122 -0.2147  0.4496 -2.0828
 5822SOL    MW423062   3.716   1.327   6.094 -0.3054  1.0042  0.1996
 5823SOL     OW23063   0.116   0.094   0.295 -0.1762  0.0100  0.2853
 5823SOL    HW223064   0.115   0.148   0.215  1.5114 -0.6545 -0.2359
 5823SOL    HW323065   0.099   0.156   0.366  2.1149  1.3705 -0.2590
 5823SOL    MW423066   0.114   0.109   0.294 -0.8465 -0.0175  0.1425
 5824SOL     OW23067   4.523   3.481   1.559 -0.3048 -0.2904 -0.1947
 5824SOL    HW223068   4.479   3.437   1.487  1.0754 -0.9441 -0.6729
 5824SOL    HW323069   4.547   3.411   1.619  0.1770  0.0338  0.0012
 5824SOL    MW423070   4.521   3.466   1.557 -0.2273  0.6240  0.0104
 5825SOL     OW23071   4.039   0.685   1.839 -0.7338  0.8340 -0.1365
 5825SOL    HW223072   4.083   0.636   1.908 -0.3715  0.6349 -0.5015
 5825SOL    HW323073   3.956   0.640   1.827 -0.8907  0.9990  0.3157
 5825SOL    MW423074   4.034   0.672   1.846 -0.2934  0.2075 -0.1929
 5826SOL     OW23075   2.824   4.941   3.045 -0.6315  0.0435  0.0412
 5826SOL    HW223076   2.839   4.914   3.136 -1.0586  0.1929  0.1581
 5826SOL    HW323077   2.736   4.978   3.045 -0.9281 -0.6351 -0.5933
 5826SOL    MW423078   2.814   4.942   3.057  0.3777 -0.4566 -0.1086
 5827SOL     OW23079   6.322   4.186   3.044 -0.1810 -0.6699 -0.4603
 5827SOL    HW223080   6.322   4.117   2.977  0.4110 -1.3356  0.2085
 5827SOL    HW323081   6.396   4.165   3.100  0.6441  1.1295 -0.8330
 5827SOL    MW423082   6.331   4.174   3.042  0.0555  0.1375  0.1448
 5828SOL     OW23083   2.460   4.737   1.856  0.1642  0.2364  0.2898
 5828SOL    HW223084   2.493   4.787   1.781 -2.1077  1.7877  0.2301
 5828SOL    HW323085   2.396   4.677   1.817  0.9304 -0.8886  0.7058
 5828SOL    MW423086   2.456   4.736   1.841 -0.0678 -0.3962 -0.1791
 5829SOL     OW23087   2.806   4.419   5.003 -0.0883 -0.2167  0.0226
 5829SOL    HW223088   2.811   4.335   4.958 -2.1444 -0.9175  0.9931
 5829SOL    HW323089   2.887   4.424   5.054  0.4051 -1.2360 -0.6440
 5829SOL    MW423090   2.818   4.409   5.004 -0.1703  0.2115 -0.5212
 5830SOL     OW23091   0.030   4.312   3.969 -0.2645 -0.3851  0.8839
 5830SOL    HW223092   0.035   4.371   4.044  1.9891  0.6261  0.0215
 5830SOL    HW323093   0.054   4.367   3.894 -1.8026 -1.5233 -0.5154
 5830SOL    MW423094   0.034   4.327   3.969 -0.4943  0.8538 -0.0296
 5831SOL     OW23095   2.794   0.651   4.847  0.3097 -0.6646  0.0757
 5831SOL    HW223096   2.784   0.746   4.842  3.5893 -0.1309  1.0259
 5831SOL    HW323097   2.769   0.620   4.760 -0.3553  1.1166 -0.4185
 5831SOL    MW423098   2.790   0.660   4.835  0.4339 -0.2098 -0.4514
 5832SOL     OW23099   2.257   2.765   5.367  0.1879 -0.3787  0.7976
 5832SOL    HW223100   2.200   2.807   5.431 -1.0631  1.4984 -1.3961
 5832SOL    HW323101   2.198   2.733   5.299  1.6167  0.2241 -0.8065
 5832SOL    MW423102   2.242   2.766   5.366  0.4202  0.3108  0.0965
 5833SOL     OW23103   4.525   3.093   2.878  0.0977 -0.2075 -0.1167
 5833SOL    HW223104   4.459   3.082   2.946  0.5899 -0.7964  0.2762
 5833SOL    HW323105   4.609   3.088   2.924  0.4431 -1.0003 -0.7915
 5833SOL    MW423106   4.527   3.091   2.893  0.0402  0.2107 -0.0388
 5834SOL     OW23107   1.580   0.674   3.577 -0.1863 -0.1908 -0.0784
 5834SOL    HW223108   1.614   0.601   3.628  0.7424  0.2900  0.0178
 5834SOL    HW323109   1.487   0.654   3.565 -0.2829 -0.6375  1.2465
 5834SOL    MW423110   1.572   0.662   3.582 -0.7681 -0.1613 -0.4573
 5835SOL     OW23111   1.148   2.346   6.119 -0.5529  0.3770 -0.3029
 5835SOL    HW223112   1.221   2.322   6.175 -0.4867  0.7976 -0.2089
 5835SOL    HW323113   1.190   2.376   6.038 -0.6235  0.6663 -0.2297
 5835SOL    MW423114   1.163   2.346   6.115 -0.0252  0.4622  0.7316
 5836SOL     OW23115   0.229   0.557   4.124  0.5585  0.2746 -0.0881
 5836SOL    HW223116   0.256   0.466   4.134  1.2792  0.3001 -1.6278
 5836SOL    HW323117   0.189   0.578   4.208  0.0306 -1.5647  0.1735
 5836SOL    MW423118   0.227   0.548   4.137  0.6542  0.4342 -0.2742
 5837SOL     OW23119   0.567   0.058   5.116 -0.3651 -0.0792  0.3913
 5837SOL    HW223120   0.621  -0.019   5.101 -0.9026 -0.1450 -1.4762
 5837SOL    HW323121   0.499   0.028   5.177  0.6338 -0.4712  1.3451
 5837SOL    MW423122   0.565   0.044   5.122  0.6406  0.1964  0.2543
 5838SOL     OW23123   1.755   3.199   3.097 -0.2867  0.0661  0.2550
 5838SOL    HW223124   1.793   3.238   3.175  0.1773  1.7739 -0.7741
 5838SOL    HW323125   1.673   3.245   3.084  0.4654  1.0852 -1.2130
 5838SOL    MW423126   1.749   3.210   3.105 -1.3568 -0.2779 -0.2553
 5839SOL     OW23127   3.717   5.593   0.763  1.1597 -0.3340 -0.3675
 5839SOL    HW223128   3.715   5.688   0.750  2.0295  0.0221  1.6205
 5839SOL    HW323129   3.729   5.557   0.675  2.0548  1.4698 -1.0474
 5839SOL    MW423130   3.718   5.601   0.750 -0.1183 -0.0969  0.1475
 5840SOL     OW23131   6.361   2.053   0.600  0.0989 -0.3286 -0.2742
 5840SOL    HW223132   6.421   2.104   0.546 -1.3517  0.7197 -0.9662
 5840SOL    HW323133   6.274   2.085   0.576 -0.6700 -0.6183  1.8945
 5840SOL    MW423134   6.357   2.064   0.590 -0.6812 -0.4997 -0.3181
 5841SOL     OW23135   5.980   5.735   1.887  0.5248  0.3999  0.5769
 5841SOL    HW223136   5.996   5.643   1.906  0.2230  0.0923 -0.5907
 5841SOL    HW323137   5.907   5.759   1.944  2.1836  0.6407  2.7565
 5841SOL    MW423138   5.972   5.726   1.897 -0.2382  0.0361 -0.0345
 5842SOL     OW23139   2.565   2.662   5.207 -0.1272 -0.2431 -0.0994
 5842SOL    HW223140   2.620   2.616   5.144  0.4358  1.9863 -1.3356
 5842SOL    HW323141   2.479   2.667   5.165  0.2000  1.0829 -0.6573
 5842SOL    MW423142   2.561   2.657   5.194  0.9034  0.9272 -0.4083
 5843SOL     OW23143   1.338   2.776   4.526  0.7973 -0.0640 -0.5240
 5843SOL    HW223144   1.393   2.833   4.472 -1.6623  2.2910 -0.7727
 5843SOL    HW323145   1.363   2.796   4.616  0.2498  1.1755 -0.6263
 5843SOL    MW423146   1.348   2.786   4.531 -0.0626 -0.0236  0.4195
 5844SOL     OW23147   6.365   4.944   1.244  0.7507  0.1454 -0.3566
 5844SOL    HW223148   6.348   4.970   1.154 -0.7695 -1.5908 -0.6229
 5844SOL    HW323149   6.295   4.883   1.265  1.7845 -0.4493  1.6028
 5844SOL    MW423150   6.354   4.940   1.235  0.0254  0.2003  0.6829
 5845SOL     OW23151   1.038   0.280   6.067  0.5346  0.1546 -0.3930
 5845SOL    HW223152   0.949   0.255   6.040 -0.1088 -0.0807  1.7604
 5845SOL    HW323153   1.033   0.285   6.162  3.1330 -0.9683 -0.1291
 5845SOL    MW423154   1.026   0.277   6.076  0.5791 -0.0917  0.2918
 5846SOL     OW23155   0.950   5.897   1.807 -0.2449 -0.1577 -0.1360
 5846SOL    HW223156   0.860   5.888   1.775 -0.6138  1.1123  0.4635
 5846SOL    HW323157   0.944   5.964   1.876  1.0839 -0.3972  0.2358
 5846SOL    MW423158   0.937   5.905   1.812  0.6789 -0.2701  0.0493
 5847SOL     OW23159   4.420   6.275   1.918 -0.1804 -0.8454 -0.2620
 5847SOL    HW223160   4.403   6.180   1.919  0.6477 -1.0146  1.0604
 5847SOL    HW323161   4.463   6.292   2.002 -2.2030  1.0536  0.4816
 5847SOL    MW423162   4.423   6.265   1.930  0.4045 -0.3895  0.0161
 5848SOL     OW23163   5.286   1.246   0.007  0.3674 -0.4418  0.5776
 5848SOL    HW223164   5.243   1.192  -0.059  0.0038 -0.3732  0.7566
 5848SOL    HW323165   5.322   1.183   0.070  2.4376 -0.6314 -0.6795
 5848SOL    MW423166   5.285   1.231   0.007 -0.2192  0.3876  0.5343
 5849SOL     OW23167   2.093   5.179   5.616 -0.4490 -0.2197 -0.1882
 5849SOL    HW223168   2.094   5.110   5.549  1.6103  1.5677 -2.1358
 5849SOL    HW323169   2.081   5.260   5.566  1.0125  1.1760  1.6291
 5849SOL    MW423170   2.091   5.180   5.600  0.1033  0.4100 -0.1496
 5850SOL     OW23171   4.178   3.732   1.338 -0.4488 -0.1299 -0.1253
 5850SOL    HW223172   4.123   3.763   1.266  0.1808 -1.6403 -1.3307
 5850SOL    HW323173   4.267   3.747   1.309 -0.1746  1.0158  1.2125
 5850SOL    MW423174   4.182   3.738   1.325 -0.0157 -0.3238  0.6425
 5851SOL     OW23175   4.698   3.619   5.978  0.3521 -0.8104 -0.0558
 5851SOL    HW223176   4.700   3.655   5.889  2.4458 -3.1245 -1.0892
 5851SOL    HW323177   4.779   3.569   5.985 -0.4042 -1.8482  2.7078
 5851SOL    MW423178   4.709   3.617   5.967  0.5305 -0.6728  0.6563
 5852SOL     OW23179   5.334   5.841   1.823 -0.4958  0.4160  0.3700
 5852SOL    HW223180   5.255   5.893   1.807 -0.8800 -0.2350  0.1293
 5852SOL    HW323181   5.353   5.800   1.738 -1.3042 -1.3531  0.9870
 5852SOL    MW423182   5.326   5.842   1.809  0.1468 -0.4118  0.0209
 5853SOL     OW23183   3.987   5.878   1.343 -0.0080  0.1958  0.1069
 5853SOL    HW223184   3.908   5.927   1.363 -1.4083 -1.2363 -1.5949
 5853SOL    HW323185   3.983   5.862   1.248  1.8637 -0.6848  0.1099
 5853SOL    MW423186   3.976   5.882   1.333 -0.4303  0.0156  0.5012
 5854SOL     OW23187   2.392   1.230   2.888 -0.3906 -0.0554  0.0304
 5854SOL    HW223188   2.430   1.253   2.803  0.3114  0.5538  0.5049
 5854SOL    HW323189   2.464   1.190   2.937 -0.4917  0.6203  0.7473
 5854SOL    MW423190   2.407   1.227   2.883  0.4569 -0.1977 -0.6752
 5855SOL     OW23191   4.895   4.308   5.570  0.2508 -0.0401 -0.3103
 5855SOL    HW223192   4.943   4.227   5.553  0.4857  0.2647 -1.1463
 5855SOL    HW323193   4.926   4.336   5.656  0.0097 -0.9399  0.0795
 5855SOL    MW423194   4.906   4.301   5.579 -0.2862 -0.2300  0.7193
 5856SOL     OW23195   3.017   5.212   1.863 -0.4445  0.0997 -0.1034
 5856SOL    HW223196   3.030   5.304   1.888 -0.2518  0.1138 -0.2506
 5856SOL    HW323197   2.955   5.216   1.790  0.0681  0.1622 -0.5379
 5856SOL    MW423198   3.010   5.225   1.857  0.5245 -0.7791  0.3550
 5857SOL     OW23199   5.509   0.118   5.729  0.0844 -0.1627 -0.4207
 5857SOL    HW223200   5.430   0.082   5.770  1.1136 -1.0866  0.8287
 5857SOL    HW323201   5.477   0.194   5.679 -1.5231 -0.2296  0.4294
 5857SOL    MW423202   5.494   0.123   5.728  0.0696  0.4242 -0.0553
 5858SOL     OW23203   0.844   5.294   1.221  0.0853  0.2795 -0.1664
 5858SOL    HW223204   0.879   5.376   1.186 -0.3800  0.5411 -0.0244
 5858SOL    HW323205   0.774   5.270   1.160 -1.3982  1.2459  1.0821
 5858SOL    MW423206   0.840   5.302   1.208 -0.7874  0.3660  0.2949
 5859SOL     OW23207   0.682   4.790   4.444  0.7174  0.1516  0.5035
 5859SOL    HW223208   0.619   4.861   4.450 -1.4832 -1.6498  0.1145
 5859SOL    HW323209   0.644   4.719   4.496 -0.2391 -2.7679 -3.6929
 5859SOL    MW423210   0.669   4.790   4.452 -0.3704 -0.2756  0.2030
 5860SOL     OW23211   4.565   2.854   2.763 -0.4213 -0.0553 -0.2919
 5860SOL    HW223212   4.482   2.823   2.797 -0.0087 -0.7211  0.1390
 5860SOL    HW323213   4.570   2.946   2.788 -1.5724  0.3217 -1.3929
 5860SOL    MW423214   4.555   2.862   2.771 -0.1310  0.0692  0.0170
 5861SOL     OW23215   3.323   6.225   0.401  0.2279 -0.3796  0.1954
 5861SOL    HW223216   3.360   6.202   0.487  0.5774 -0.7474 -0.0506
 5861SOL    HW323217   3.280   6.145   0.371 -1.6870  0.3138  0.9262
 5861SOL    MW423218   3.323   6.212   0.409 -0.5281  0.0465  0.0573
 5862SOL     OW23219   5.237   4.431   2.838 -0.5145 -0.7171  0.5241
 5862SOL    HW223220   5.317   4.413   2.887  0.8178  1.7941 -0.5467
 5862SOL    HW323221   5.214   4.521   2.863 -0.2019  0.3997 -2.7643
 5862SOL    MW423222   5.244   4.441   2.848 -0.2604  0.1222  0.3448
 5863SOL     OW23223   6.300   1.606   5.052  0.3712 -0.1734 -0.6147
 5863SOL    HW223224   6.325   1.608   5.144 -0.1899  2.9582 -0.4300
 5863SOL    HW323225   6.206   1.590   5.053  0.0278  1.6674 -0.4780
 5863SOL    MW423226   6.291   1.604   5.064 -0.5161 -0.3700  0.2885
 5864SOL     OW23227   1.671   0.709   3.303 -0.9764  0.1328 -0.2391
 5864SOL    HW223228   1.679   0.698   3.398  0.8249  0.2356 -0.3453
 5864SOL    HW323229   1.734   0.646   3.266 -1.0638  0.6603 -1.3273
 5864SOL    MW423230   1.681   0.699   3.311  0.3009 -0.2189 -0.2372
 5865SOL     OW23231   6.149   2.680   3.269  0.3004 -0.0382  0.3122
 5865SOL    HW223232   6.160   2.666   3.363 -3.0366  1.2054  1.0315
 5865SOL    HW323233   6.158   2.593   3.230  2.6783 -0.4296  1.5892
 5865SOL    MW423234   6.152   2.667   3.276  0.0389  0.0359 -0.2018
 5866SOL     OW23235   3.940   1.972   0.435 -0.1693  0.3271 -0.5370
 5866SOL    HW223236   3.883   1.907   0.395 -0.7803 -0.1568  1.0508
 5866SOL    HW323237   3.907   2.056   0.403 -1.1656 -0.0025 -0.4112
 5866SOL    MW423238   3.928   1.975   0.426  0.4084  0.1770  0.4160
 5867SOL     OW23239   5.110   4.922   3.064  0.0005 -0.3400 -0.3485
 5867SOL    HW223240   5.189   4.923   3.117  0.5551 -1.8028 -1.0800
 5867SOL    HW323241   5.039   4.908   3.126  0.5818 -1.4363  0.0906
 5867SOL    MW423242   5.111   4.920   3.079  0.3338  0.3905 -0.2662
 5868SOL     OW23243   5.033   2.405   6.163  0.0096  0.1463  0.0976
 5868SOL    HW223244   5.042   2.476   6.226 -0.7795 -0.0327  0.4198
 5868SOL    HW323245   4.939   2.394   6.152  0.1280  0.3051 -1.2672
 5868SOL    MW423246   5.022   2.412   6.170 -0.1751 -0.1002 -0.0402
 5869SOL     OW23247   3.771   0.752   1.260 -0.2699 -0.3184  0.1731
 5869SOL    HW223248   3.809   0.714   1.180 -0.0355 -2.3131  1.1520
 5869SOL    HW323249   3.847   0.785   1.309 -0.0465 -1.6957  0.8195
 5869SOL    MW423250   3.786   0.751   1.256  0.5995 -0.0563 -0.7820
 5870SOL     OW23251   3.315   3.161   0.200  0.0272  0.3755 -0.4342
 5870SOL    HW223252   3.355   3.127   0.280  2.7249  1.2155 -1.3197
 5870SOL    HW323253   3.264   3.088   0.165 -1.3460  0.0303  2.0697
 5870SOL    MW423254   3.313   3.147   0.206  0.6830 -0.4223 -0.2977
 5871SOL     OW23255   4.757   4.742   4.970  0.2538  0.2456  0.0303
 5871SOL    HW223256   4.826   4.687   4.933  0.3022  0.9739 -1.0048
 5871SOL    HW323257   4.764   4.729   5.065  1.0159 -0.6244 -0.1328
 5871SOL    MW423258   4.767   4.733   4.978 -0.1174 -0.0079  0.0616
 5872SOL     OW23259   6.103   5.501   0.553  0.0024  0.4465  0.0833
 5872SOL    HW223260   6.088   5.411   0.522  1.8026 -0.1169  0.7178
 5872SOL    HW323261   6.041   5.554   0.503  0.6538 -0.8078 -2.1972
 5872SOL    MW423262   6.092   5.496   0.542 -0.0501 -0.2084  0.1087
 5873SOL     OW23263   0.501   4.001   6.054 -0.0472 -0.2327 -0.3308
 5873SOL    HW223264   0.527   3.910   6.042 -0.7761 -0.3757 -0.9172
 5873SOL    HW323265   0.575   4.041   6.099  0.6230 -0.9278 -0.7756
 5873SOL    MW423266   0.515   3.994   6.058 -0.2855  0.1979 -0.1101
 5874SOL     OW23267   0.652   5.070   2.920 -0.3069  0.6793  0.4767
 5874SOL    HW223268   0.738   5.101   2.949  0.1647  1.3852 -1.5292
 5874SOL    HW323269   0.639   4.988   2.967  2.3534 -0.4608 -0.5752
 5874SOL    MW423270   0.662   5.064   2.930 -0.5484  0.3100 -0.4734
 5875SOL     OW23271   3.632   2.588   2.884  0.5638 -0.4296 -0.5872
 5875SOL    HW223272   3.608   2.602   2.975 -2.0040 -1.6351 -0.9781
 5875SOL    HW323273   3.671   2.671   2.856  0.0604  0.4533  1.1976
 5875SOL    MW423274   3.634   2.601   2.892 -0.5449  0.0790 -0.5081
 5876SOL     OW23275   1.066   1.149   4.709  0.4074  0.3758  0.5665
 5876SOL    HW223276   1.006   1.084   4.745  0.6045  0.8164  1.7325
 5876SOL    HW323277   1.100   1.108   4.629 -0.9963 -0.1010  0.1953
 5876SOL    MW423278   1.063   1.135   4.703  0.4934  0.5668 -0.3652
 5877SOL     OW23279   0.575   4.816   3.019 -0.6971 -0.1771  0.2326
 5877SOL    HW223280   0.628   4.736   3.016 -1.9837 -1.0847  0.9070
 5877SOL    HW323281   0.594   4.853   3.105  1.5208  1.4471 -0.8554
 5877SOL    MW423282   0.585   4.810   3.030 -0.0231 -0.2127  0.3972
 5878SOL     OW23283   6.239   5.399   6.203  0.0199 -0.5232  0.1831
 5878SOL    HW223284   6.313   5.339   6.198 -1.5811 -2.6179  0.3805
 5878SOL    HW323285   6.192   5.372   6.282 -0.5245  1.3333  0.5434
 5878SOL    MW423286   6.243   5.387   6.213  0.3213  0.7014  0.3337
 5879SOL     OW23287   1.758   6.090   5.254  0.1656  0.5497  0.7575
 5879SOL    HW223288   1.714   6.173   5.236 -0.0962  0.1313 -0.6568
 5879SOL    HW323289   1.846   6.101   5.220 -0.4374 -0.3672 -1.2651
 5879SOL    MW423290   1.764   6.102   5.247  0.0042  0.0323 -0.0349
 5880SOL     OW23291   3.807   5.126   1.781 -0.4724 -0.4192  0.3606
 5880SOL    HW223292   3.750   5.056   1.749 -0.6964 -0.8449  1.6349
 5880SOL    HW323293   3.870   5.081   1.838 -0.0337  0.3036  0.4531
 5880SOL    MW423294   3.808   5.111   1.784  0.4931  0.1810  0.1809
 5881SOL     OW23295   2.290   2.131   2.022 -0.4214  0.7733  0.3673
 5881SOL    HW223296   2.202   2.133   1.986 -0.6013 -0.8737  0.6450
 5881SOL    HW323297   2.278   2.143   2.116 -0.2067  2.0191  0.2508
 5881SOL    MW423298   2.277   2.133   2.029 -0.0968 -0.2258 -0.4253
 5882SOL     OW23299   6.230   2.713   2.151  0.3171 -0.1016 -0.0367
 5882SOL    HW223300   6.319   2.707   2.183  0.8496  1.9423 -0.9594
 5882SOL    HW323301   6.193   2.789   2.196 -0.7544 -0.5411 -0.1351
 5882SOL    MW423302   6.237   2.722   2.161 -0.1595  0.7124 -0.2319
 5883SOL     OW23303   2.099   2.838   5.565  0.4081 -0.1198 -0.4457
 5883SOL    HW223304   2.125   2.879   5.648  1.5207 -0.6750 -0.5074
 5883SOL    HW323305   2.007   2.815   5.578 -0.2752  2.3422 -0.3842
 5883SOL    MW423306   2.090   2.841   5.578 -0.0050  0.0053 -0.0366
 5884SOL     OW23307   3.648   5.911   3.943 -0.2677  0.0337  0.1224
 5884SOL    HW223308   3.584   5.919   3.873 -1.1393  1.0201  0.9986
 5884SOL    HW323309   3.596   5.906   4.024  0.7213 -0.5725  0.7520
 5884SOL    MW423310   3.633   5.911   3.945  0.1480 -0.2418  0.2107
 5885SOL     OW23311   3.308   3.484   1.309 -0.2899  0.1355  0.5548
 5885SOL    HW223312   3.401   3.464   1.316 -0.2816  0.2725  0.8718
 5885SOL    HW323313   3.284   3.456   1.220 -0.0193 -0.1799  0.5788
 5885SOL    MW423314   3.317   3.478   1.298 -0.2631  0.2354  0.3871
 5886SOL     OW23315   3.993   1.194   0.393  0.3997 -0.2903 -0.6468
 5886SOL    HW223316   3.945   1.115   0.415 -0.3699  0.2824 -0.2404
 5886SOL    HW323317   3.968   1.214   0.303  0.6915 -0.5710 -0.7927
 5886SOL    MW423318   3.984   1.186   0.384  0.1724 -0.4630 -0.0774
 5887SOL     OW23319   2.239   4.415   3.651  0.5405  0.0190  0.1387
 5887SOL    HW223320   2.291   4.474   3.596  0.3231 -0.9131 -1.1079
 5887SOL    HW323321   2.302   4.376   3.711  1.0562 -0.0906 -0.4618
 5887SOL    MW423322   2.254   4.418   3.651 -0.1705 -0.0730 -0.5058
 5888SOL     OW23323   4.602   0.473   5.243 -0.2306 -0.0172 -0.5502
 5888SOL    HW223324   4.658   0.548   5.220  0.6195 -0.6247 -0.5371
 5888SOL    HW323325   4.638   0.400   5.192  1.4133 -1.3155  2.2235
 5888SOL    MW423326   4.614   0.473   5.233 -0.3258 -0.2692  0.4898
 5889SOL     OW23327   5.941   1.741   3.999 -0.2679 -0.1354 -0.2842
 5889SOL    HW223328   5.959   1.724   4.092 -2.4942  2.3046  0.7156
 5889SOL    HW323329   6.013   1.796   3.970 -0.9987  1.5444  0.9117
 5889SOL    MW423330   5.953   1.746   4.008 -0.1867 -0.1822 -0.2106
 5890SOL     OW23331   0.876   4.738   0.951  0.1297 -0.4017  0.3683
 5890SOL    HW223332   0.826   4.807   0.996  0.3829 -0.5644  0.9146
 5890SOL    HW323333   0.966   4.771   0.952  0.1148 -0.3472 -0.1451
 5890SOL    MW423334   0.881   4.752   0.957 -0.1031  0.6717  0.0947
 5891SOL     OW23335   0.580   1.161   5.456  0.0316 -0.0158  0.4275
 5891SOL    HW223336   0.541   1.076   5.473 -0.0837 -0.4038 -1.5457
 5891SOL    HW323337   0.637   1.147   5.380  1.0403  1.3839  0.8720
 5891SOL    MW423338   0.583   1.148   5.449 -0.1280  0.4211 -0.0805
 5892SOL     OW23339   2.719   1.020   0.145 -1.2358  0.1904  0.2106
 5892SOL    HW223340   2.711   1.101   0.194  1.0680  1.7025 -1.6666
 5892SOL    HW323341   2.802   0.982   0.174 -0.2647  0.6683 -1.7172
 5892SOL    MW423342   2.729   1.026   0.155 -0.4572 -0.2202 -0.3975
 5893SOL     OW23343   1.931   0.093   4.845 -0.5362  0.2599 -0.5251
 5893SOL    HW223344   1.911   0.137   4.761 -1.0492  0.5596 -0.2509
 5893SOL    HW323345   1.873   0.136   4.908 -0.4001 -0.2111 -0.0810
 5893SOL    MW423346   1.921   0.105   4.842  0.0867  0.1375  0.7047
 5894SOL     OW23347   5.877   4.685   0.489 -0.2789  0.0868  0.4456
 5894SOL    HW223348   5.828   4.713   0.567 -0.7662  1.2591 -0.2645
 5894SOL    HW323349   5.946   4.627   0.524  0.5975  1.9335  1.9746
 5894SOL    MW423350   5.880   4.681   0.504  0.1430 -0.6896  0.1059
 5895SOL     OW23351   2.798   1.154   2.737  0.1447  0.2590  0.6099
 5895SOL    HW223352   2.836   1.126   2.820 -0.5258  1.9227  1.5112
 5895SOL    HW323353   2.712   1.113   2.734 -0.1935  0.8979  1.1851
 5895SOL    MW423354   2.792   1.145   2.747  0.0990 -0.0686  0.4391
 5896SOL     OW23355   6.230   2.200   4.238 -0.2135 -0.1380 -0.1307
 5896SOL    HW223356   6.174   2.234   4.309  0.2353 -0.6342  0.4707
 5896SOL    HW323357   6.234   2.272   4.175 -0.1554  0.5364  0.6181
 5896SOL    MW423358   6.223   2.214   4.239 -0.3551 -0.0276  0.6577
 5897SOL     OW23359   5.642   4.878   4.602  0.0056 -0.0701 -0.1644
 5897SOL    HW223360   5.553   4.868   4.636 -0.5269  0.1505 -1.4303
 5897SOL    HW323361   5.664   4.791   4.569  1.0747 -0.6585  1.9520
 5897SOL    MW423362   5.633   4.865   4.602 -0.5411  0.2870  0.2942
 5898SOL     OW23363   1.889   3.274   2.865  0.1600  0.0100  0.2430
 5898SOL    HW223364   1.851   3.247   2.949  0.8508 -1.4541  0.1200
 5898SOL    HW323365   1.983   3.259   2.875  0.3337  0.5431 -0.5389
 5898SOL    MW423366   1.896   3.268   2.878  0.4283  0.3502 -0.3137
 5899SOL     OW23367   3.352   3.538   4.250  0.0044 -0.5758  0.1239
 5899SOL    HW223368   3.285   3.560   4.185  0.3321 -1.8935 -0.6935
 5899SOL    HW323369   3.387   3.623   4.278  0.9958  0.0181 -2.6326
 5899SOL    MW423370   3.347   3.552   4.245  0.6897 -0.2830  0.1695
 5900SOL     OW23371   6.025   0.531   2.426 -0.0680 -0.0271  0.1702
 5900SOL    HW223372   6.092   0.599   2.419  0.6567 -0.7480  0.0188
 5900SOL    HW323373   5.984   0.546   2.511  2.3626 -1.4479  1.7017
 5900SOL    MW423374   6.029   0.542   2.436  0.0649 -0.1744 -0.4368
 5901SOL     OW23375   5.369   5.686   1.587  0.2184 -0.2952 -0.1818
 5901SOL    HW223376   5.452   5.709   1.545 -0.3836 -0.8923 -1.7650
 5901SOL    HW323377   5.303   5.725   1.531 -0.6597 -2.0388 -0.3953
 5901SOL    MW423378   5.372   5.694   1.574  0.1567  0.0901 -0.6662
 5902SOL     OW23379   0.870   1.672   5.985  0.2009  0.2848 -1.1637
 5902SOL    HW223380   0.792   1.637   5.942 -1.7044  0.6119  1.7328
 5902SOL    HW323381   0.902   1.599   6.039  0.0184  1.0333 -0.0007
 5902SOL    MW423382   0.864   1.658   5.987 -0.2471 -0.0289 -0.1991
 5903SOL     OW23383   5.981   3.328   0.375  0.2211 -0.0673  0.2306
 5903SOL    HW223384   5.910   3.390   0.354 -1.1316 -0.5339  2.9377
 5903SOL    HW323385   5.994   3.278   0.295 -0.6803  1.7745 -1.1412
 5903SOL    MW423386   5.973   3.330   0.362 -0.3342  0.0506 -0.0010
 5904SOL     OW23387   1.326   5.802   4.217  0.5453 -0.1037 -0.1419
 5904SOL    HW223388   1.312   5.795   4.311  0.2968  1.8876  0.0085
 5904SOL    HW323389   1.344   5.895   4.202 -1.8487  0.1332 -2.3610
 5904SOL    MW423390   1.326   5.813   4.227  0.2391  0.0716 -0.0425
 5905SOL     OW23391   3.893   0.883   4.139  0.5119  0.4977 -0.4814
 5905SOL    HW223392   3.899   0.830   4.219 -3.0298 -0.9260 -0.9506
 5905SOL    HW323393   3.854   0.965   4.168 -0.1374  0.2433 -0.6089
 5905SOL    MW423394   3.889   0.887   4.153  0.5276 -0.6200 -0.0785
 5906SOL     OW23395   2.172   0.884   6.066  0.0620 -0.2956  0.0143
 5906SOL    HW223396   2.265   0.889   6.088  0.3744  2.9189 -1.3862
 5906SOL    HW323397   2.163   0.938   5.988 -3.1833  0.6199  0.8579
 5906SOL    MW423398   2.183   0.892   6.059  0.6810  0.3180  0.4020
 5907SOL     OW23399   0.027   4.128   1.264  0.4078 -0.4760 -0.4780
 5907SOL    HW223400   0.121   4.135   1.248  0.2900 -0.4140 -1.1693
 5907SOL    HW323401   0.016   4.041   1.303  0.8327 -0.1959  0.2883
 5907SOL    MW423402   0.038   4.117   1.267 -0.6643  0.2102 -0.0605
 5908SOL     OW23403   5.491   2.128   2.082  0.6428  0.2774 -0.0109
 5908SOL    HW223404   5.395   2.134   2.089  0.7322 -0.1012  3.1371
 5908SOL    HW323405   5.523   2.186   2.151  2.4983 -3.2150  2.3482
 5908SOL    MW423406   5.482   2.137   2.092 -0.0760  0.1127  0.3964
 5909SOL     OW23407   5.906   4.149   5.801 -0.0923  0.3108 -0.2806
 5909SOL    HW223408   5.910   4.176   5.893  1.2131  0.6440 -0.4148
 5909SOL    HW323409   5.873   4.059   5.803 -0.0859  0.3222  0.4989
 5909SOL    MW423410   5.902   4.141   5.813 -0.1778  0.1550  0.3376
 5910SOL     OW23411   4.156   3.991   4.510  0.2098 -0.0542  0.3459
 5910SOL    HW223412   4.216   4.039   4.452  1.4268 -0.4360  1.2403
 5910SOL    HW323413   4.148   3.905   4.469 -1.9489  0.8208 -1.2421
 5910SOL    MW423414   4.163   3.986   4.497  0.2331 -0.2867 -0.2450
 5911SOL     OW23415   0.194   4.489   3.012  0.3944  0.2776 -0.1491
 5911SOL    HW223416   0.118   4.506   3.068  0.7552 -0.6491  0.6471
 5911SOL    HW323417   0.252   4.564   3.028  0.4069  0.1229  0.5733
 5911SOL    MW423418   0.191   4.501   3.021  0.1741  0.2209 -0.8123
 5912SOL     OW23419   1.969   5.819   1.408  0.0909  0.6076  0.5439
 5912SOL    HW223420   1.972   5.724   1.405  1.0806  0.6289  0.7104
 5912SOL    HW323421   2.000   5.842   1.496  1.7305  1.1321 -0.1279
 5912SOL    MW423422   1.973   5.810   1.419 -0.6098  0.4419 -0.6514
 5913SOL     OW23423   1.784   0.592   1.427  0.2988 -0.1684 -0.1289
 5913SOL    HW223424   1.727   0.522   1.459  0.3637  0.6188  1.8251
 5913SOL    HW323425   1.826   0.627   1.505  1.7777  0.7650 -1.2784
 5913SOL    MW423426   1.782   0.588   1.441 -0.4241  0.1835 -0.3151
 5914SOL     OW23427   3.381   4.978   3.396 -0.2907  0.0557  0.0142
 5914SOL    HW223428   3.377   5.021   3.482 -0.5855 -0.9670  0.5274
 5914SOL    HW323429   3.327   4.900   3.406  0.0760 -0.3332 -0.9559
 5914SOL    MW423430   3.373   4.973   3.409  0.0574 -0.1083 -0.7494
 5915SOL     OW23431   2.824   3.086   3.958  0.0885  0.0139 -0.5556
 5915SOL    HW223432   2.814   2.991   3.959  0.7210 -0.0651 -0.9669
 5915SOL    HW323433   2.763   3.116   3.891 -0.6577 -0.0291  0.0987
 5915SOL    MW423434   2.815   3.077   3.949  0.3939 -0.1586 -0.0772
 5916SOL     OW23435   3.780   0.320   2.520  0.0355  0.6461 -0.2427
 5916SOL    HW223436   3.845   0.310   2.451 -0.4696  0.2287 -0.6735
 5916SOL    HW323437   3.774   0.415   2.535  2.5774  0.5982  1.6266
 5916SOL    MW423438   3.788   0.331   2.513  0.2550  0.2959  0.2802
 5917SOL     OW23439   0.136   3.406   1.160  0.1046 -0.4897  0.1340
 5917SOL    HW223440   0.042   3.388   1.164  0.0953 -0.6818 -0.7318
 5917SOL    HW323441   0.145   3.475   1.095  0.6611 -1.3026 -0.6828
 5917SOL    MW423442   0.125   3.413   1.152 -0.0778  0.0672 -0.1004
 5918SOL     OW23443   0.168   0.086   5.108  0.3484  0.2216 -0.0405
 5918SOL    HW223444   0.166   0.002   5.062 -1.0916  0.9068 -1.3169
 5918SOL    HW323445   0.232   0.138   5.059  1.5764 -0.2499  1.0221
 5918SOL    MW423446   0.176   0.082   5.095 -0.0026 -0.3566 -0.4613
 5919SOL     OW23447   4.578   5.572   1.136  0.3092  0.1708 -0.2268
 5919SOL    HW223448   4.632   5.602   1.209  1.4834 -0.5234 -0.7822
 5919SOL    HW323449   4.520   5.645   1.116  1.2510  1.0420  0.1911
 5919SOL    MW423450   4.577   5.585   1.143 -0.5707  0.2069 -0.0223
 5920SOL     OW23451   5.348   2.412   0.978 -0.0171  1.1172  0.4014
 5920SOL    HW223452   5.434   2.446   0.951  1.3214 -1.3723  1.1744
 5920SOL    HW323453   5.307   2.383   0.897  1.1290 -0.2163  0.2448
 5920SOL    MW423454   5.354   2.412   0.964  0.2085 -0.6819 -0.5366
 5921SOL     OW23455   0.526   2.173   4.572 -0.1967  0.3216  0.7199
 5921SOL    HW223456   0.569   2.150   4.654  0.8203 -0.3001  0.0269
 5921SOL    HW323457   0.598   2.197   4.513 -0.9915  2.1393  0.4150
 5921SOL    MW423458   0.541   2.173   4.575 -0.5576 -0.1946  0.4620
 5922SOL     OW23459   0.892   3.348   5.910 -0.0789 -0.2406  0.1479
 5922SOL    HW223460   0.798   3.340   5.891 -0.3859 -0.1764  1.5717
 5922SOL    HW323461   0.901   3.435   5.949  0.2669 -0.9425  1.6827
 5922SOL    MW423462   0.880   3.359   5.913 -0.2757 -0.0554  0.0383
 5923SOL     OW23463   4.257   4.473   2.844 -0.4260  0.3658 -0.4065
 5923SOL    HW223464   4.240   4.560   2.882 -0.4421 -0.1148  0.7166
 5923SOL    HW323465   4.329   4.438   2.895 -0.5064 -0.3412 -0.7687
 5923SOL    MW423466   4.264   4.480   2.856  0.4051 -0.1940 -0.2203
 5924SOL     OW23467   3.028   5.870   1.951  0.3487  0.3716 -0.2870
 5924SOL    HW223468   3.008   5.953   1.994 -1.1085 -0.1586  0.1084
 5924SOL    HW323469   3.116   5.848   1.982  0.2286  1.1172  0.6328
 5924SOL    MW423470   3.037   5.878   1.961  0.3629  0.3177  0.0168
 5925SOL     OW23471   4.943   4.264   4.327  0.1334  0.5202 -0.1023
 5925SOL    HW223472   4.870   4.301   4.278  0.7328  0.0897 -1.3504
 5925SOL    HW323473   5.019   4.277   4.271  0.5743 -1.3945 -0.0169
 5925SOL    MW423474   4.943   4.270   4.314 -0.5349 -0.0807  0.4131
 5926SOL     OW23475   4.818   5.897   3.275  0.4275 -0.3287 -0.5452
 5926SOL    HW223476   4.911   5.876   3.271  0.6021 -0.2196  1.6737
 5926SOL    HW323477   4.816   5.991   3.295 -0.0873 -0.6062  0.8189
 5926SOL    MW423478   4.830   5.907   3.277  0.7166 -0.3948 -0.5755
 5927SOL     OW23479   3.738   3.185   0.162  0.6246  0.5218 -0.1273
 5927SOL    HW223480   3.776   3.215   0.080  0.9905  4.1259  1.2001
 5927SOL    HW323481   3.659   3.237   0.173  0.0985 -0.5295  1.3913
 5927SOL    MW423482   3.733   3.196   0.153 -0.5874 -0.3913 -0.6724
 5928SOL     OW23483   0.392   2.041   3.160 -0.2877  0.2209 -0.1085
 5928SOL    HW223484   0.347   1.986   3.096 -0.8004  0.2762  0.1949
 5928SOL    HW323485   0.339   2.120   3.166 -1.3124 -0.5310  1.7102
 5928SOL    MW423486   0.379   2.044   3.153 -0.5641 -0.1538 -0.8183
 5929SOL     OW23487   5.994   3.751   6.071  0.0684 -0.0382 -0.0404
 5929SOL    HW223488   5.970   3.819   6.007 -0.1009 -1.4883 -1.5956
 5929SOL    HW323489   6.013   3.799   6.151  0.2250  1.8636 -1.1588
 5929SOL    MW423490   5.993   3.767   6.073  0.3775 -0.5298  0.2227
 5930SOL     OW23491   6.113   5.791   3.062  0.2046  0.2793 -0.4199
 5930SOL    HW223492   6.192   5.816   3.013  0.8773  0.4070  0.7005
 5930SOL    HW323493   6.127   5.699   3.084 -0.9472 -0.3396 -2.0177
 5930SOL    MW423494   6.126   5.782   3.058  0.1924  0.4222  0.2055
 5931SOL     OW23495   0.133   3.091   4.757  0.1901  0.3990 -0.0828
 5931SOL    HW223496   0.071   3.019   4.744 -0.6634  1.2108 -0.5841
 5931SOL    HW323497   0.214   3.047   4.783 -0.6171 -0.6816  0.7640
 5931SOL    MW423498   0.135   3.076   4.759  0.1803 -0.0306 -0.2533
 5932SOL     OW23499   2.124   2.258   2.835 -0.0433 -0.0209  0.8191
 5932SOL    HW223500   2.063   2.301   2.895  0.9814  2.0471  0.4727
 5932SOL    HW323501   2.191   2.324   2.818  1.9394 -1.9650  0.6543
 5932SOL    MW423502   2.125   2.273   2.841  0.0908 -0.3442  0.1908
 5933SOL     OW23503   0.596   0.512   1.590  0.1051 -0.0041  0.4519
 5933SOL    HW223504   0.622   0.602   1.574 -0.5111 -0.0801 -1.1838
 5933SOL    HW323505   0.529   0.518   1.658  2.3804  0.4074  2.8179
 5933SOL    MW423506   0.590   0.525   1.597 -0.3614  0.1212  0.6588
 5934SOL     OW23507   5.599   1.463   1.509 -0.2519 -0.2910 -0.2858
 5934SOL    HW223508   5.575   1.458   1.602 -0.2058 -3.6466 -0.3368
 5934SOL    HW323509   5.521   1.433   1.463  1.1702 -3.2886 -0.9542
 5934SOL    MW423510   5.586   1.458   1.515 -0.0765 -0.2810 -0.3892
 5935SOL     OW23511   4.082   6.290   2.937  0.3578  0.1982 -0.1370
 5935SOL    HW223512   4.153   6.314   2.878  1.3597 -1.2720  0.3985
 5935SOL    HW323513   4.106   6.329   3.021  0.8005 -0.6916  0.1619
 5935SOL    MW423514   4.095   6.298   2.941  0.5361  0.5457 -0.6918
 5936SOL     OW23515   4.341   1.165   4.393  0.4820  0.0594 -0.1608
 5936SOL    HW223516   4.345   1.249   4.440 -0.5774  0.0758 -0.0925
 5936SOL    HW323517   4.251   1.158   4.362  0.4892 -1.1718  0.0384
 5936SOL    MW423518   4.330   1.175   4.395 -0.2154 -0.5024  0.3208
 5937SOL     OW23519   4.768   4.680   4.378  0.6429  0.4142 -0.3517
 5937SOL    HW223520   4.826   4.739   4.426 -0.3285  1.1987 -0.1061
 5937SOL    HW323521   4.682   4.720   4.385 -0.5095 -2.1030  1.7195
 5937SOL    MW423522   4.764   4.693   4.386  0.8463 -0.4989 -0.2422
 5938SOL     OW23523   2.140   0.851   2.802  0.1608 -0.8119  0.2128
 5938SOL    HW223524   2.208   0.816   2.744  0.7089 -0.5804  0.7100
 5938SOL    HW323525   2.113   0.933   2.760  2.7956  1.0246  1.8328
 5938SOL    MW423526   2.145   0.857   2.789  0.4478 -0.5851  0.2506
 5939SOL     OW23527   0.227   0.021   0.604  0.3057 -0.0192  0.2294
 5939SOL    HW223528   0.212  -0.049   0.540 -0.1486 -1.0514  1.4198
 5939SOL    HW323529   0.282   0.084   0.558  0.2559 -0.8775 -1.0680
 5939SOL    MW423530   0.232   0.020   0.589 -0.0365 -0.2312  0.2701
 5940SOL     OW23531   0.870   3.416   4.652  0.5460 -0.7720 -0.0405
 5940SOL    HW223532   0.836   3.448   4.569 -0.8360  0.8325  1.0831
 5940SOL    HW323533   0.868   3.492   4.711  0.1580 -2.1556  1.8460
 5940SOL    MW423534   0.865   3.430   4.649 -0.3606  0.3694  0.5623
 5941SOL     OW23535   1.352   4.422   4.255  0.1375  0.1675 -0.8024
 5941SOL    HW223536   1.385   4.399   4.342 -0.3145 -0.1200 -0.7063
 5941SOL    HW323537   1.417   4.386   4.194  1.2633  1.6863 -0.5525
 5941SOL    MW423538   1.365   4.414   4.258  0.5329  0.0082  0.4152
 5942SOL     OW23539   0.981   1.393   6.378  0.3737  0.3848  0.7115
 5942SOL    HW223540   1.017   1.467   6.427  1.0420  0.4552  0.1355
 5942SOL    HW323541   1.041   1.321   6.395  0.3575  0.2877  0.3704
 5942SOL    MW423542   0.994   1.393   6.387  0.2699 -0.1031  0.1682
 5943SOL     OW23543   4.246   4.017   3.398  0.4048  0.5304  0.2510
 5943SOL    HW223544   4.171   4.044   3.346 -0.3860 -0.7653  0.6924
 5943SOL    HW323545   4.259   3.925   3.378  0.9473  0.3594  1.2850
 5943SOL    MW423546   4.238   4.009   3.389 -0.0224 -0.3829 -0.3063
 5944SOL     OW23547   3.276   0.730   4.379  0.2865 -0.1331  0.3133
 5944SOL    HW223548   3.196   0.781   4.390 -0.8599 -0.7561 -3.5639
 5944SOL    HW323549   3.342   0.794   4.353 -0.2104 -0.1065 -0.9678
 5944SOL    MW423550   3.274   0.745   4.377  0.3380  0.4918 -0.1435
 5945SOL     OW23551   3.260   4.136   5.638  0.5274 -0.5492 -0.5780
 5945SOL    HW223552   3.170   4.135   5.604 -0.0611  0.7410  0.8057
 5945SOL    HW323553   3.293   4.223   5.616  1.4191 -0.9721 -0.9703
 5945SOL    MW423554   3.252   4.148   5.631  0.1472  0.2076 -0.2143
 5946SOL     OW23555   2.234   0.029   3.244 -0.1571  0.6038  0.0652
 5946SOL    HW223556   2.187  -0.045   3.205 -0.3344 -0.4177  2.0429
 5946SOL    HW323557   2.281   0.069   3.171 -1.2894 -0.5046 -1.3441
 5946SOL    MW423558   2.234   0.024   3.229  0.6162 -0.4854  0.0524
 5947SOL     OW23559   4.689   1.597   1.785 -0.2856  0.1759 -0.2219
 5947SOL    HW223560   4.682   1.644   1.701 -0.9203  0.4726 -0.0111
 5947SOL    HW323561   4.729   1.660   1.845  0.3518 -0.1037 -0.3471
 5947SOL    MW423562   4.693   1.612   1.781 -0.0058 -0.3272 -0.2224
 5948SOL     OW23563   0.700   2.264   4.372 -0.4330 -0.1159 -0.0442
 5948SOL    HW223564   0.606   2.272   4.357 -0.5744 -0.3580  0.6705
 5948SOL    HW323565   0.734   2.353   4.361 -0.5165 -0.2535 -1.6960
 5948SOL    MW423566   0.692   2.277   4.369 -0.1288  0.3320 -0.4810
 5949SOL     OW23567   2.347   1.991   2.596 -0.1355  0.3961 -0.0540
 5949SOL    HW223568   2.322   2.009   2.687 -0.3266  1.2680 -0.2700
 5949SOL    HW323569   2.381   2.074   2.564 -1.1161  0.4120 -1.1250
 5949SOL    MW423570   2.348   2.004   2.604 -0.1530  0.0213 -0.1967
 5950SOL     OW23571   6.308   6.287   0.519  0.1923  0.2031  0.4993
 5950SOL    HW223572   6.342   6.265   0.432  0.7508  0.0072  0.7607
 5950SOL    HW323573   6.379   6.264   0.579 -0.5882 -0.6718  1.1130
 5950SOL    MW423574   6.322   6.281   0.515 -0.1236  0.1362 -0.5832
 5951SOL     OW23575   3.288   1.441   1.413 -0.1294 -0.1708  0.1983
 5951SOL    HW223576   3.219   1.432   1.479  0.4634 -1.0046  0.7263
 5951SOL    HW323577   3.369   1.419   1.460  0.3884 -0.0580 -0.6231
 5951SOL    MW423578   3.290   1.437   1.428 -0.2848 -0.2794 -0.1593
 5952SOL     OW23579   3.678   0.461   0.121 -0.4609  0.1850 -0.1778
 5952SOL    HW223580   3.754   0.424   0.167  0.9644  1.5357 -1.3211
 5952SOL    HW323581   3.699   0.554   0.111 -2.4178  0.6463 -0.2985
 5952SOL    MW423582   3.691   0.468   0.125 -0.4103 -0.6518 -0.4129
 5953SOL     OW23583   6.319   2.987   1.545  0.6749  0.0530  0.5619
 5953SOL    HW223584   6.255   2.919   1.568  0.9322 -0.3560  0.0821
 5953SOL    HW323585   6.373   2.947   1.477  0.8108  0.7569  0.2505
 5953SOL    MW423586   6.318   2.972   1.539 -0.0859  0.0051  0.4071
 5954SOL     OW23587   4.776   4.227   2.862  0.1440  0.1852  0.4286
 5954SOL    HW223588   4.800   4.187   2.945 -0.8508 -0.6876  0.3118
 5954SOL    HW323589   4.682   4.215   2.855  0.5526 -2.7789 -2.3314
 5954SOL    MW423590   4.767   4.220   2.872  0.5496  1.0313  0.1821
 5955SOL     OW23591   2.662   6.016   4.847 -0.1358 -0.2038  0.8700
 5955SOL    HW223592   2.575   6.015   4.807  0.0481  0.3006  0.4353
 5955SOL    HW323593   2.646   6.034   4.940 -0.5080 -0.2992  0.8242
 5955SOL    MW423594   2.648   6.018   4.854 -0.6229  0.1108  0.3425
 5956SOL     OW23595   3.690   4.830   0.030 -0.5332  0.2029 -0.7566
 5956SOL    HW223596   3.629   4.798   0.096 -0.1655 -0.6718 -0.8347
 5956SOL    HW323597   3.640   4.832  -0.051 -0.8983  0.9889 -0.5240
 5956SOL    MW423598   3.675   4.826   0.028  0.7057  0.0652  0.3452
 5957SOL     OW23599   6.172   1.288   1.565 -0.1561  0.7181 -0.0081
 5957SOL    HW223600   6.250   1.276   1.511 -0.8089  0.7545 -0.9804
 5957SOL    HW323601   6.183   1.376   1.602 -0.6634  1.5529 -1.7342
 5957SOL    MW423602   6.184   1.298   1.563  0.3296 -0.0417 -0.6913
 5958SOL     OW23603   3.504   1.884   0.280 -0.4238  0.3522  0.3107
 5958SOL    HW223604   3.467   1.840   0.203 -0.0233 -0.4268  0.5580
 5958SOL    HW323605   3.546   1.963   0.245  0.7249 -0.5628 -0.4318
 5958SOL    MW423606   3.505   1.889   0.265  0.3465  0.0796 -0.0611
 5959SOL     OW23607   6.104   1.199   4.363  0.3888  0.1783  0.0487
 5959SOL    HW223608   6.087   1.216   4.455 -0.1921 -0.6542  0.1056
 5959SOL    HW323609   6.037   1.136   4.337  1.2282 -0.4570 -0.6553
 5959SOL    MW423610   6.093   1.193   4.371 -0.2914  0.8137  0.6059
 5960SOL     OW23611   1.778   5.531   1.111 -0.4717 -0.1731  0.7005
 5960SOL    HW223612   1.864   5.490   1.114 -0.3134  0.1888  1.5062
 5960SOL    HW323613   1.791   5.610   1.060 -0.5045 -0.5067  0.1692
 5960SOL    MW423614   1.791   5.536   1.105 -0.4003 -0.4714 -0.0695
 5961SOL     OW23615   5.195   4.070   5.272 -0.1412 -0.5078  0.1514
 5961SOL    HW223616   5.187   3.979   5.302  1.2937 -0.4600  0.7421
 5961SOL    HW323617   5.262   4.066   5.204  0.7464  0.2690  0.9577
 5961SOL    MW423618   5.203   4.057   5.267  0.0951  0.0970 -0.3832
 5962SOL     OW23619   3.965   1.082   1.251 -0.7041 -0.1491 -0.3204
 5962SOL    HW223620   3.912   1.065   1.174 -0.8992  0.1649 -0.2598
 5962SOL    HW323621   4.033   1.142   1.221 -0.1403 -0.8551 -0.4879
 5962SOL    MW423622   3.967   1.088   1.237  0.2248  0.1261  0.3369
 5963SOL     OW23623   5.815   2.763   3.096  0.1039  0.1976  0.1576
 5963SOL    HW223624   5.819   2.690   3.035 -2.9693  0.6952 -0.8195
 5963SOL    HW323625   5.885   2.822   3.068  0.7532 -1.0203 -0.8913
 5963SOL    MW423626   5.824   2.762   3.084  0.1083  0.1352  0.2391
 5964SOL     OW23627   2.703   6.112   0.696 -0.2618 -0.3240 -0.0288
 5964SOL    HW223628   2.764   6.145   0.762 -0.6781  0.9012 -0.2228
 5964SOL    HW323629   2.635   6.068   0.746 -0.0403 -0.3171  0.2837
 5964SOL    MW423630   2.702   6.111   0.711  0.1377 -0.4865  0.1220
 5965SOL     OW23631   2.231   4.028   3.375  0.2918  0.1215  0.1308
 5965SOL    HW223632   2.307   4.054   3.322 -1.0308  0.5698 -1.6701
 5965SOL    HW323633   2.248   4.065   3.462  2.1410  0.1539 -0.2095
 5965SOL    MW423634   2.243   4.037   3.379  0.1592  0.2723  0.2818
 5966SOL     OW23635   5.742   5.878   4.710  0.4924 -0.0787  0.3954
 5966SOL    HW223636   5.681   5.820   4.757  0.3953  0.0945  0.4827
 5966SOL    HW323637   5.778   5.823   4.640 -1.4429  0.3908 -1.0868
 5966SOL    MW423638   5.739   5.863   4.707  0.1612  0.9564 -0.4507
 5967SOL     OW23639   2.189   2.476   4.648  0.0909 -0.2423 -0.4464
 5967SOL    HW223640   2.110   2.455   4.698  0.7962  1.4819  1.5623
 5967SOL    HW323641   2.187   2.572   4.639  1.0448 -0.3307 -1.9709
 5967SOL    MW423642   2.178   2.486   4.654 -0.7762 -0.0109 -0.3300
 5968SOL     OW23643   2.997   5.344   4.229 -0.2165  0.2074 -0.4064
 5968SOL    HW223644   2.961   5.256   4.229  0.7437 -0.2474 -2.0895
 5968SOL    HW323645   2.977   5.379   4.315 -0.3215 -1.7777  0.4191
 5968SOL    MW423646   2.990   5.337   4.240 -0.0516 -0.1779 -0.3171
 5969SOL     OW23647   5.302   6.274   4.351 -0.1676  0.1892 -1.2895
 5969SOL    HW223648   5.314   6.355   4.400 -0.6718 -0.2450 -0.4333
 5969SOL    HW323649   5.217   6.240   4.379  0.3365 -0.9914 -1.1027
 5969SOL    MW423650   5.292   6.280   4.361 -0.2031  0.0417  0.2881
 5970SOL     OW23651   4.099   0.939   6.422  0.2169 -0.6599 -0.1412
 5970SOL    HW223652   4.004   0.934   6.405  0.1990  0.1137 -0.3111
 5970SOL    HW323653   4.115   1.031   6.438  0.7860 -0.9267  0.8859
 5970SOL    MW423654   4.088   0.950   6.421  0.0617  0.2977 -0.7499
 5971SOL     OW23655   5.026   5.648   2.858 -0.7155 -0.5221  0.6473
 5971SOL    HW223656   4.981   5.581   2.909 -0.4304 -0.8757  0.4348
 5971SOL    HW323657   4.984   5.644   2.772 -0.7460 -0.3772  0.6547
 5971SOL    MW423658   5.015   5.639   2.853 -0.1151  0.6293  0.1281
 5972SOL     OW23659   5.362   2.149   3.609 -0.3120  0.1671 -0.3913
 5972SOL    HW223660   5.418   2.122   3.682 -1.7108 -1.0861  0.2607
 5972SOL    HW323661   5.313   2.224   3.643 -0.4049  0.0662 -0.3012
 5972SOL    MW423662   5.363   2.155   3.623 -0.1728  0.5523  0.2647
 5973SOL     OW23663   2.875   0.176   2.128  0.1878  0.1815  0.3106
 5973SOL    HW223664   2.820   0.250   2.101  0.9190  0.9480  0.8727
 5973SOL    HW323665   2.874   0.180   2.223 -1.7461 -2.0272  0.4714
 5973SOL    MW423666   2.867   0.187   2.137  0.4758  0.7832 -0.3863
 5974SOL     OW23667   0.736   0.302   2.739  0.2270  0.3886  0.1529
 5974SOL    HW223668   0.726   0.364   2.812 -0.4823  0.6783 -0.1790
 5974SOL    HW323669   0.755   0.357   2.664 -3.0496  0.5449 -0.7252
 5974SOL    MW423670   0.737   0.317   2.739  0.0761 -0.2003  0.2910
 5975SOL     OW23671   0.530   2.657   4.728 -0.2396  0.0081 -0.5231
 5975SOL    HW223672   0.502   2.571   4.759 -2.3987  0.2557 -1.5710
 5975SOL    HW323673   0.622   2.645   4.705  0.4771 -1.0901  2.4306
 5975SOL    MW423674   0.539   2.644   4.729 -0.1579 -0.2388 -0.7593
 5976SOL     OW23675   0.311   5.497   2.674 -0.1003  0.3304 -0.3996
 5976SOL    HW223676   0.326   5.591   2.679  1.6750  0.1652 -1.7226
 5976SOL    HW323677   0.394   5.458   2.702 -1.0585 -0.8960  0.9092
 5976SOL    MW423678   0.324   5.504   2.679  0.6753 -0.0049 -0.3527
 5977SOL     OW23679   1.447   4.688   4.230 -0.3278  0.4080 -0.1235
 5977SOL    HW223680   1.415   4.599   4.244 -1.8202  0.8142 -0.7850
 5977SOL    HW323681   1.539   4.676   4.206 -0.9578 -1.1333 -2.0798
 5977SOL    MW423682   1.455   4.675   4.228 -0.3095  0.3844 -0.5579
 5978SOL     OW23683   3.617   2.843   4.109 -0.0367  0.8816  0.3248
 5978SOL    HW223684   3.631   2.748   4.105 -0.5752  0.7303  1.5870
 5978SOL    HW323685   3.585   2.866   4.022  1.9146  0.2448 -0.6292
 5978SOL    MW423686   3.615   2.833   4.097 -0.8915  0.4340 -0.2144
 5979SOL     OW23687   3.412   2.460   3.893 -0.1367  0.1553 -0.2226
 5979SOL    HW223688   3.495   2.473   3.939 -1.2608 -0.4171  2.0824
 5979SOL    HW323689   3.346   2.501   3.949 -1.5370 -0.0576 -1.6340
 5979SOL    MW423690   3.414   2.467   3.906 -0.0646 -0.0393  0.2355
 5980SOL     OW23691   3.473   4.769   0.187  0.3320 -0.8053  0.4706
 5980SOL    HW223692   3.417   4.745   0.113 -0.3611  0.2149  0.6519
 5980SOL    HW323693   3.428   4.841   0.230  1.6017 -0.1957  0.8498
 5980SOL    MW423694   3.460   4.775   0.183 -0.0531 -0.4293 -0.5937
 5981SOL     OW23695   5.050   2.594   4.706 -0.6565 -0.4108  0.0044
 5981SOL    HW223696   5.118   2.583   4.640 -1.7933  0.0788 -1.2882
 5981SOL    HW323697   5.094   2.574   4.789  1.1106  0.1253 -0.7547
 5981SOL    MW423698   5.065   2.590   4.708 -0.0519 -0.3911  0.4520
 5982SOL     OW23699   5.313   2.288   4.837 -0.4568 -0.3190 -0.2596
 5982SOL    HW223700   5.241   2.228   4.819  1.8680 -3.6794  0.8079
 5982SOL    HW323701   5.354   2.302   4.751 -0.4231 -1.1057 -0.3791
 5982SOL    MW423702   5.309   2.282   4.823  0.5663  0.7537  0.0276
 5983SOL     OW23703   0.413   1.487   1.479  0.7439  0.5974 -0.0227
 5983SOL    HW223704   0.385   1.398   1.459 -0.0975  0.8457  0.0027
 5983SOL    HW323705   0.494   1.499   1.428  0.2856  0.1771 -0.8672
 5983SOL    MW423706   0.420   1.477   1.469  0.2013  0.4775  0.3709
 5984SOL     OW23707   1.742   5.606   6.248  0.2370  0.2003  0.1187
 5984SOL    HW223708   1.748   5.701   6.236 -0.3133 -0.0116 -2.3288
 5984SOL    HW323709   1.782   5.569   6.169 -0.1761 -1.6024  0.7032
 5984SOL    MW423710   1.748   5.614   6.236 -0.3874 -0.3251  0.3439
 5985SOL     OW23711   0.855   5.065   4.191 -0.2717  0.4356  0.0440
 5985SOL    HW223712   0.905   5.003   4.245 -1.0108 -0.7484 -0.5745
 5985SOL    HW323713   0.904   5.147   4.196  0.8528 -0.2526  0.7347
 5985SOL    MW423714   0.868   5.067   4.199  0.0010 -0.3343  0.2471
 5986SOL     OW23715   4.997   0.866   1.554 -0.7684  0.0090  0.0992
 5986SOL    HW223716   4.941   0.910   1.617 -0.2748  1.2459 -0.3038
 5986SOL    HW323717   5.067   0.928   1.536  0.2079 -1.1290 -0.1445
 5986SOL    MW423718   4.999   0.880   1.560 -0.8693 -0.0598 -0.3443
 5987SOL     OW23719   0.987   1.248   6.002 -0.3618 -0.0756 -0.2125
 5987SOL    HW223720   1.014   1.277   5.915 -0.6884  1.2560  0.1073
 5987SOL    HW323721   1.059   1.192   6.032 -0.0206 -0.1495 -1.1380
 5987SOL    MW423722   1.000   1.244   5.995  0.1437  0.2231 -0.1936
 5988SOL     OW23723   0.412   4.866   0.262  0.2251  0.0161 -0.2538
 5988SOL    HW223724   0.433   4.874   0.169  0.4445  1.0456 -0.1281
 5988SOL    HW323725   0.423   4.773   0.281  0.2179 -0.1992 -1.2453
 5988SOL    MW423726   0.416   4.854   0.252 -0.1799  0.3828  0.0040
 5989SOL     OW23727   6.044   1.768   0.287 -0.2188  0.0459 -0.1571
 5989SOL    HW223728   5.991   1.698   0.250  2.6533 -2.4011 -0.0106
 5989SOL    HW323729   6.108   1.723   0.343  1.6975  2.7836  0.0691
 5989SOL    MW423730   6.046   1.753   0.289 -0.1869  0.1036  0.5112
 5990SOL     OW23731   3.606   3.577   5.525 -0.2007 -0.0941  0.1442
 5990SOL    HW223732   3.598   3.615   5.437 -0.4593 -1.2681 -0.3625
 5990SOL    HW323733   3.700   3.580   5.543 -0.4178  3.4422  1.3866
 5990SOL    MW423734   3.617   3.582   5.516 -0.8267 -0.0570 -0.4336
 5991SOL     OW23735   5.177   3.809   2.301  0.0757  0.1068 -0.8015
 5991SOL    HW223736   5.126   3.818   2.220  1.8091  2.5703 -1.7351
 5991SOL    HW323737   5.126   3.856   2.367 -0.5290 -0.4694 -0.8486
 5991SOL    MW423738   5.164   3.817   2.299 -0.0502 -0.1880 -0.0892
 5992SOL     OW23739   4.227   3.231   2.398 -0.3012  0.0801 -0.5529
 5992SOL    HW223740   4.161   3.188   2.344 -0.0151 -0.4459 -0.4835
 5992SOL    HW323741   4.272   3.160   2.443  0.7256  0.3813 -1.0733
 5992SOL    MW423742   4.224   3.216   2.397 -0.2087 -0.2287  0.4230
 5993SOL     OW23743   1.159   3.095   6.094  0.2165  0.3475  0.2351
 5993SOL    HW223744   1.099   3.141   6.154  1.5214  3.3562 -0.5476
 5993SOL    HW323745   1.244   3.100   6.137  0.3543 -1.9668  0.3412
 5993SOL    MW423746   1.162   3.102   6.107  0.0034  0.5922  0.2527
 5994SOL     OW23747   5.186   2.084   2.019 -0.1367  0.0297  0.0926
 5994SOL    HW223748   5.118   2.148   1.997 -2.0146 -1.7709  0.3302
 5994SOL    HW323749   5.144   2.026   2.083  0.9328 -2.3544 -1.2454
 5994SOL    MW423750   5.171   2.084   2.025 -0.4960 -0.2415  0.0330
 5995SOL     OW23751   3.323   2.584   1.459  0.1255  0.4084 -0.3153
 5995SOL    HW223752   3.373   2.624   1.531 -1.6714  1.4388  0.4276
 5995SOL    HW323753   3.340   2.640   1.384  0.3580  0.5341 -0.1710
 5995SOL    MW423754   3.332   2.596   1.459 -0.5868  0.2092  0.0210
 5996SOL     OW23755   0.862   3.645   0.836  0.0209 -0.2444 -0.4313
 5996SOL    HW223756   0.848   3.735   0.866  1.8388 -0.4935  1.4206
 5996SOL    HW323757   0.848   3.649   0.742  0.0571  1.9946 -0.4093
 5996SOL    MW423758   0.858   3.658   0.828  0.5351  0.6073  0.3262
 5997SOL     OW23759   5.299   6.105   4.986  0.0592 -0.0530 -0.2847
 5997SOL    HW223760   5.319   6.042   4.917 -0.4651 -1.4056  0.7698
 5997SOL    HW323761   5.373   6.099   5.047  0.4034  0.9590 -0.5776
 5997SOL    MW423762   5.311   6.096   4.985  0.3711  0.7210 -0.1664
 5998SOL     OW23763   2.952   4.423   1.654 -0.0809 -0.8521 -0.5020
 5998SOL    HW223764   3.047   4.431   1.644 -0.2495  1.5120 -0.7079
 5998SOL    HW323765   2.916   4.483   1.589 -1.6733 -0.3405  0.7840
 5998SOL    MW423766   2.960   4.432   1.644 -0.7411 -0.3442 -0.3188
 5999SOL     OW23767   0.557   5.675   5.752 -0.5949  0.3430  0.9026
 5999SOL    HW223768   0.497   5.728   5.700 -1.8653  0.5707  2.4864
 5999SOL    HW323769   0.554   5.589   5.711 -1.3224  0.5837  0.4223
 5999SOL    MW423770   0.549   5.671   5.740  0.0202  0.0868 -0.5921
 6000SOL     OW23771   1.085   2.561   4.230  0.1270  0.1202 -0.2039
 6000SOL    HW223772   1.019   2.618   4.190  1.3535  0.8566 -1.2631
 6000SOL    HW323773   1.099   2.598   4.317 -0.0034  0.6728 -0.4153
 6000SOL    MW423774   1.078   2.573   4.236  0.0884 -0.2728 -0.5288
 6001SOL     OW23775   4.635   6.168   2.159 -0.3039  0.4101 -0.0649
 6001SOL    HW223776   4.670   6.128   2.079 -0.0180 -0.1092  0.3215
 6001SOL    HW323777   4.693   6.138   2.229  1.9416  3.9602 -0.1107
 6001SOL    MW423778   4.647   6.159   2.158  0.5725 -0.3483 -0.2077
 6002SOL     OW23779   2.713   3.358   0.049  0.5128 -0.2557  0.0891
 6002SOL    HW223780   2.721   3.324  -0.041 -2.8214  0.6930 -0.7171
 6002SOL    HW323781   2.720   3.453   0.039 -0.7878 -0.0840  0.6407
 6002SOL    MW423782   2.715   3.366   0.036  0.3215  0.5701  0.0490
 6003SOL     OW23783   2.279   1.502   6.264  0.3613 -0.7464  0.0381
 6003SOL    HW223784   2.259   1.596   6.270  2.6340 -0.1549 -0.6511
 6003SOL    HW323785   2.304   1.489   6.173 -1.1427 -2.3510 -0.2043
 6003SOL    MW423786   2.279   1.513   6.253  0.2937 -0.2311 -0.3017
 6004SOL     OW23787   3.021   1.837   1.095  0.1244  0.5266  0.0743
 6004SOL    HW223788   3.076   1.901   1.051  0.3853  0.4043  0.2194
 6004SOL    HW323789   2.955   1.890   1.140  0.9331  0.7739  1.0264
 6004SOL    MW423790   3.020   1.853   1.095  0.4135 -0.5099 -0.1619
 6005SOL     OW23791   3.248   0.630   3.005 -0.4076  0.5060 -0.1934
 6005SOL    HW223792   3.204   0.704   3.046  1.8521  2.2817 -0.7433
 6005SOL    HW323793   3.248   0.562   3.072 -2.9428  0.7662  0.1738
 6005SOL    MW423794   3.242   0.631   3.019 -0.5328 -0.5823  0.2157
 6006SOL     OW23795   3.074   0.022   0.189 -0.1976 -0.8108  0.0608
 6006SOL    HW223796   3.095   0.005   0.281 -1.4838  0.0110  0.5237
 6006SOL    HW323797   3.112   0.108   0.171 -0.5688 -0.6529  0.0296
 6006SOL    MW423798   3.082   0.031   0.199 -0.2393  0.1757 -0.9170
 6007SOL     OW23799   1.483   4.202   1.766  0.0955 -0.2164  0.0159
 6007SOL    HW223800   1.538   4.280   1.767  1.2458 -0.9901 -0.7778
 6007SOL    HW323801   1.463   4.186   1.858  0.5597  0.5083  0.2492
 6007SOL    MW423802   1.487   4.210   1.778  0.0995  0.3104  0.3295
 6008SOL     OW23803   5.712   0.199   3.195 -0.0840  0.5309 -0.4319
 6008SOL    HW223804   5.799   0.185   3.158  0.1837 -0.8413  0.6492
 6008SOL    HW323805   5.719   0.172   3.286 -1.7086  0.0918 -0.3916
 6008SOL    MW423806   5.724   0.193   3.202 -0.1495  0.0951 -0.3393
 6009SOL     OW23807   4.454   3.582   4.174  0.0425 -0.2301  0.7010
 6009SOL    HW223808   4.487   3.649   4.235  1.2002 -0.5642  0.4686
 6009SOL    HW323809   4.524   3.518   4.170  0.6977  0.5321 -2.1683
 6009SOL    MW423810   4.467   3.583   4.182  0.4737  0.5838  0.0476
 6010SOL     OW23811   2.179   5.485   4.338 -0.4541 -0.2506  0.5929
 6010SOL    HW223812   2.123   5.420   4.296  0.1813 -0.0901 -0.5417
 6010SOL    HW323813   2.242   5.433   4.388  0.2622 -0.5557 -0.5743
 6010SOL    MW423814   2.180   5.469   4.339 -0.0143  0.4427  0.2365
 6011SOL     OW23815   4.788   1.066   0.854 -0.1492  0.0156 -0.0472
 6011SOL    HW223816   4.808   1.004   0.784 -0.3362  1.4828 -1.4608
 6011SOL    HW323817   4.869   1.116   0.867  0.3804 -1.2664  1.9286
 6011SOL    MW423818   4.801   1.065   0.846  0.1181  0.2085  0.2107
 6012SOL     OW23819   4.944   6.180   3.088  0.1069  0.2028 -0.5369
 6012SOL    HW223820   4.942   6.104   3.029 -0.9376 -0.8678  0.8154
 6012SOL    HW323821   5.038   6.199   3.097  0.3566 -0.4596 -1.4656
 6012SOL    MW423822   4.956   6.172   3.081  0.0491 -0.3614 -0.3714
 6013SOL     OW23823   1.568   0.019   5.760  0.6232  0.0600  0.5554
 6013SOL    HW223824   1.521   0.088   5.713 -0.0350  0.5870  1.9377
 6013SOL    HW323825   1.658   0.024   5.728 -0.0544 -0.4781 -1.5997
 6013SOL    MW423826   1.574   0.029   5.750  0.3019 -0.0987 -0.3448
 6014SOL     OW23827   1.027   4.145   0.086  0.1117 -0.2737  0.6584
 6014SOL    HW223828   1.013   4.236   0.112  0.1176  0.0766 -0.5050
 6014SOL    HW323829   1.097   4.114   0.144  0.6795  0.7189  0.5255
 6014SOL    MW423830   1.035   4.153   0.097  0.7310  0.3501 -0.2803
 6015SOL     OW23831   3.483   4.533   3.846  0.1270 -0.1762  0.0089
 6015SOL    HW223832   3.411   4.543   3.908  0.3848  2.5997 -0.0063
 6015SOL    HW323833   3.561   4.528   3.901  0.0352 -2.9412  0.0152
 6015SOL    MW423834   3.484   4.533   3.861  0.3513 -0.1282 -0.1284
 6016SOL     OW23835   4.932   6.232   0.916 -0.2941  0.1654  0.1344
 6016SOL    HW223836   5.012   6.284   0.916 -1.0020  1.3015  1.3703
 6016SOL    HW323837   4.861   6.295   0.907 -1.0986 -0.7411 -0.1077
 6016SOL    MW423838   4.933   6.247   0.915  0.1945  0.0249 -0.7117
 6017SOL     OW23839   0.078   1.294   3.952  0.2811 -0.2196  0.2088
 6017SOL    HW223840   0.112   1.206   3.963  1.1844  0.0668 -0.1910
 6017SOL    HW323841   0.047   1.298   3.862  1.2692  0.2042 -0.1192
 6017SOL    MW423842   0.078   1.283   3.942 -0.1189 -0.0448  0.1303
 6018SOL     OW23843   6.185   4.276   4.011 -0.3499  0.1592 -0.0315
 6018SOL    HW223844   6.278   4.265   3.992  0.2736 -0.1776  2.7347
 6018SOL    HW323845   6.140   4.221   3.946  1.3234  0.4814 -1.5359
 6018SOL    MW423846   6.191   4.267   4.000  0.4054  0.0811  0.4070
 6019SOL     OW23847   3.300   5.725   6.339  0.1896  0.3313 -0.1463
 6019SOL    HW223848   3.343   5.764   6.415  1.1430  0.9672 -0.9941
 6019SOL    HW323849   3.244   5.795   6.305 -1.1993 -0.3401  0.6677
 6019SOL    MW423850   3.298   5.739   6.344 -0.2553  1.0383 -0.6436
 6020SOL     OW23851   2.310   0.644   3.741 -0.1745  0.7786  0.6234
 6020SOL    HW223852   2.239   0.618   3.682 -0.6152  1.2609  0.9355
 6020SOL    HW323853   2.266   0.691   3.812  0.4780  1.2263  0.7373
 6020SOL    MW423854   2.295   0.647   3.743 -0.4030  0.8582  0.1418
 6021SOL     OW23855   3.350   2.886   3.067  0.6879 -0.1437  0.4154
 6021SOL    HW223856   3.389   2.973   3.075 -1.6100  1.3852 -2.7669
 6021SOL    HW323857   3.264   2.895   3.107  1.4505 -1.9183  2.6411
 6021SOL    MW423858   3.344   2.899   3.074  0.2585 -0.2862 -0.2180
 6022SOL     OW23859   2.643   0.760   1.039  0.2405  0.4521  0.1536
 6022SOL    HW223860   2.580   0.712   0.986 -0.0597 -0.1999  1.0720
 6022SOL    HW323861   2.606   0.848   1.046 -0.0787  0.3388 -0.1230
 6022SOL    MW423862   2.630   0.766   1.033  0.1302 -0.2047 -0.2231
 6023SOL     OW23863   4.639   5.452   3.762  0.2934  0.0734 -0.0578
 6023SOL    HW223864   4.617   5.391   3.833 -0.2049  0.0148 -0.2527
 6023SOL    HW323865   4.573   5.434   3.695 -0.1262  1.1148  0.0496
 6023SOL    MW423866   4.627   5.442   3.763 -0.2159  0.7927  0.1449
 6024SOL     OW23867   0.456   6.027   4.646  0.3821 -0.1943  0.7776
 6024SOL    HW223868   0.406   5.947   4.631 -0.4719  0.1996  1.4401
 6024SOL    HW323869   0.487   6.053   4.559 -0.3523 -0.5772  0.3932
 6024SOL    MW423870   0.453   6.020   4.633 -0.0044  0.2665  0.6577
 6025SOL     OW23871   5.624   0.864   1.361  0.5282 -0.1048  0.0072
 6025SOL    HW223872   5.567   0.821   1.424 -0.5473  1.2858  0.0496
 6025SOL    HW323873   5.611   0.815   1.280  0.1538 -0.5206  0.3154
 6025SOL    MW423874   5.614   0.852   1.358 -0.6278  0.8894  0.0166
 6026SOL     OW23875   0.623   2.739   4.106  0.6697 -0.0235 -0.1224
 6026SOL    HW223876   0.612   2.800   4.178  0.0016 -0.9235  0.5657
 6026SOL    HW323877   0.681   2.671   4.140 -0.3042 -0.8844 -0.1247
 6026SOL    MW423878   0.629   2.738   4.120 -0.0892  0.3523  0.1018
 6027SOL     OW23879   2.785   2.893   1.663  0.0905 -0.1644 -0.0658
 6027SOL    HW223880   2.828   2.972   1.693  0.2490  0.1611 -1.1202
 6027SOL    HW323881   2.826   2.822   1.713  2.1656  0.0792 -1.2950
 6027SOL    MW423882   2.796   2.894   1.673 -0.0620 -0.3246  0.0483
 6028SOL     OW23883   0.362   5.450   1.919  0.5271  0.2928  0.1259
 6028SOL    HW223884   0.456   5.437   1.912  0.3894 -0.5576 -0.1964
 6028SOL    HW323885   0.330   5.376   1.970 -0.1291 -0.0951 -0.8154
 6028SOL    MW423886   0.370   5.439   1.925 -0.4521  0.2766  0.2083
 6029SOL     OW23887   5.684   4.143   4.666  0.7187 -0.3907  0.6218
 6029SOL    HW223888   5.635   4.197   4.605 -1.0595 -0.8820  1.5348
 6029SOL    HW323889   5.750   4.099   4.612 -2.5573 -3.0366 -1.6532
 6029SOL    MW423890   5.686   4.144   4.651  0.0023  0.5461 -0.2248
 6030SOL     OW23891   2.972   3.774   1.919  0.0877  0.0617 -0.2621
 6030SOL    HW223892   2.920   3.701   1.886 -0.5158 -0.2458  1.2624
 6030SOL    HW323893   3.044   3.732   1.967 -1.0685  0.3792  1.8779
 6030SOL    MW423894   2.975   3.759   1.921  0.1618 -0.3999 -0.1268
 6031SOL     OW23895   0.889   6.102   4.225 -0.5391  0.5553  0.4057
 6031SOL    HW223896   0.944   6.173   4.258  0.7480  1.4051 -3.1801
 6031SOL    HW323897   0.934   6.070   4.147 -2.2992 -2.6637  0.5219
 6031SOL    MW423898   0.902   6.107   4.219 -0.2388  1.0780 -0.1684
 6032SOL     OW23899   1.198   3.688   5.991 -0.4804 -0.3936  1.0665
 6032SOL    HW223900   1.239   3.767   6.024 -0.7745 -0.4613  1.5937
 6032SOL    HW323901   1.243   3.671   5.908  0.6073 -0.5084  1.6640
 6032SOL    MW423902   1.209   3.696   5.984  0.1645  0.1645 -0.7191
 6033SOL     OW23903   5.905   2.270   2.593 -0.0738  0.0815  0.8218
 6033SOL    HW223904   5.955   2.309   2.521 -1.3689  0.4046  0.0701
 6033SOL    HW323905   5.971   2.252   2.660  1.1954 -0.3242 -0.4677
 6033SOL    MW423906   5.921   2.273   2.592  0.0094  0.0185  0.4193
 6034SOL     OW23907   1.395   4.676   3.915  0.3566 -0.0265  0.2550
 6034SOL    HW223908   1.383   4.595   3.865 -1.4806 -0.1013  0.7485
 6034SOL    HW323909   1.447   4.649   3.991  0.7788 -0.4875 -0.1854
 6034SOL    MW423910   1.401   4.661   3.919  0.1593  0.3200  0.3601
 6035SOL     OW23911   0.470   3.271   1.893 -0.1706  0.0839  0.3609
 6035SOL    HW223912   0.531   3.329   1.939  0.3215 -0.1687  0.0452
 6035SOL    HW323913   0.441   3.322   1.817  0.3435 -0.1157  0.0260
 6035SOL    MW423914   0.474   3.286   1.889 -0.0200  0.8460  0.1239
 6036SOL     OW23915   5.420   4.962   3.649  0.4372 -0.1994 -0.2840
 6036SOL    HW223916   5.412   5.050   3.612  1.3007 -0.5796 -1.4455
 6036SOL    HW323917   5.379   4.905   3.583 -0.5339 -0.6402  0.6691
 6036SOL    MW423918   5.413   4.966   3.635  0.4944 -0.3561 -0.1100
 6037SOL     OW23919   5.705   4.059   3.261  0.2204 -0.2776  0.0810
 6037SOL    HW223920   5.689   4.152   3.277  0.9666 -0.1866  0.3007
 6037SOL    HW323921   5.800   4.051   3.254  0.1083 -0.8153 -1.2626
 6037SOL    MW423922   5.715   4.070   3.262 -0.0737  0.3220 -0.4703
 6038SOL     OW23923   2.540   1.626   4.703  0.2958  0.0281 -0.2534
 6038SOL    HW223924   2.473   1.557   4.708  0.6425 -0.3383 -0.5323
 6038SOL    HW323925   2.495   1.706   4.730  0.3070 -0.6005  1.8592
 6038SOL    MW423926   2.525   1.627   4.707  0.7832  0.5112  0.1629
 6039SOL     OW23927   1.310   3.895   1.366 -0.6170 -0.2623  0.5895
 6039SOL    HW223928   1.349   3.979   1.390 -1.5515  0.4108 -0.1558
 6039SOL    HW323929   1.267   3.865   1.445  0.5157 -0.5172  1.1304
 6039SOL    MW423930   1.310   3.902   1.379 -0.7973  0.0307 -0.1858
 6040SOL     OW23931   0.301   1.640   0.411 -0.5876  0.0658 -0.3845
 6040SOL    HW223932   0.257   1.647   0.495  0.3766 -0.5181  0.1827
 6040SOL    HW323933   0.272   1.556   0.375 -0.5912  0.0760 -0.4059
 6040SOL    MW423934   0.291   1.630   0.417  0.0329 -0.1333 -0.0535
 6041SOL     OW23935   2.177   6.257   0.464  0.4584 -0.2407  0.2480
 6041SOL    HW223936   2.232   6.213   0.529  0.9989  0.9212  0.5890
 6041SOL    HW323937   2.117   6.188   0.434  0.6363 -0.9616  1.4727
 6041SOL    MW423938   2.176   6.242   0.468  0.0403  0.8815  0.4324
 6042SOL     OW23939   2.663   0.798   2.449  0.1571 -0.3533 -0.0644
 6042SOL    HW223940   2.723   0.739   2.403  1.0729  0.3718  0.1721
 6042SOL    HW323941   2.718   0.842   2.514  0.2582  2.9153 -2.0989
 6042SOL    MW423942   2.678   0.796   2.451  0.5584  0.3501  0.5904
 6043SOL     OW23943   3.907   5.679   4.270  0.0397 -0.6276 -0.4994
 6043SOL    HW223944   3.955   5.709   4.347 -0.3688 -2.8086  0.6944
 6043SOL    HW323945   3.899   5.756   4.215  1.2318  0.7699  1.1812
 6043SOL    MW423946   3.912   5.693   4.273  0.1663 -0.0310 -0.0221
 6044SOL     OW23947   2.363   3.939   5.603  0.1244 -0.1675  0.5494
 6044SOL    HW223948   2.281   3.959   5.648  0.5192  0.4071  1.0278
 6044SOL    HW323949   2.341   3.945   5.510 -0.0716  1.3088  0.6726
 6044SOL    MW423950   2.349   3.942   5.597  0.3443 -0.3834  0.2903
 6045SOL     OW23951   3.277   5.946   0.363  0.4259  0.1568  0.1345
 6045SOL    HW223952   3.320   5.918   0.443  0.8313  0.4226  0.0105
 6045SOL    HW323953   3.186   5.962   0.389  0.8242  1.4248  0.8065
 6045SOL    MW423954   3.271   5.944   0.377 -0.8687  0.6188 -0.1580
 6046SOL     OW23955   2.286   5.494   5.560 -0.2153  0.0925 -0.6147
 6046SOL    HW223956   2.199   5.535   5.566  0.0587  0.7131 -0.7509
 6046SOL    HW323957   2.284   5.445   5.477 -1.2430 -1.8798  0.5063
 6046SOL    MW423958   2.274   5.493   5.550  0.0408  0.0730  0.0084
 6047SOL     OW23959   1.514   3.557   2.121 -0.1417  0.4445 -0.3282
 6047SOL    HW223960   1.561   3.532   2.200 -2.6308 -0.0902  1.1005
 6047SOL    HW323961   1.542   3.493   2.055  0.7467 -0.1194  0.5735
 6047SOL    MW423962   1.524   3.545   2.122 -0.3157 -0.2480 -0.3079
 6048SOL     OW23963   4.034   0.779   6.128  0.2140 -0.2508 -0.4616
 6048SOL    HW223964   4.042   0.704   6.069  1.1288 -0.5311 -0.0030
 6048SOL    HW323965   4.081   0.753   6.207 -1.9080 -0.3150  0.8656
 6048SOL    MW423966   4.041   0.766   6.131 -0.4088 -0.1989  0.2809
 6049SOL     OW23967   0.740   0.979   2.540  0.1943  0.7485 -0.4694
 6049SOL    HW223968   0.810   0.913   2.544  0.7591  1.3107 -0.9584
 6049SOL    HW323969   0.734   1.012   2.630 -0.1793 -0.0325 -0.1863
 6049SOL    MW423970   0.748   0.974   2.552 -0.0648 -0.5707 -0.6198
 6050SOL     OW23971   1.958   6.310   2.125  0.4027 -0.1908 -0.2902
 6050SOL    HW223972   1.985   6.359   2.203 -1.6858 -0.5136  0.7263
 6050SOL    HW323973   1.892   6.249   2.157  1.2706 -2.0865 -1.9314
 6050SOL    MW423974   1.953   6.309   2.139  0.5529 -0.6395 -0.2617
 6051SOL     OW23975   3.119   5.692   0.610  0.1091 -0.0984  0.1535
 6051SOL    HW223976   3.139   5.605   0.646  0.2547 -1.3532 -2.6889
 6051SOL    HW323977   3.189   5.708   0.547 -0.2554  1.8587  0.1877
 6051SOL    MW423978   3.131   5.683   0.606  0.7736 -0.5445  0.1184
 6052SOL     OW23979   4.161   1.470   1.849  0.7012  0.4456 -0.6442
 6052SOL    HW223980   4.254   1.485   1.834  0.6101  0.3860 -1.2811
 6052SOL    HW323981   4.124   1.558   1.859  0.5710  0.5519 -1.9567
 6052SOL    MW423982   4.169   1.484   1.849 -0.4144  0.2304 -0.1855
 6053SOL     OW23983   5.990   5.939   1.715 -0.4903 -0.2384 -0.3529
 6053SOL    HW223984   5.966   6.005   1.780  0.3125  1.2221 -1.4773
 6053SOL    HW323985   5.986   5.856   1.763  1.2714  0.8759  1.9384
 6053SOL    MW423986   5.986   5.936   1.730  0.4396 -0.2687  0.4315
 6054SOL     OW23987   2.294   1.236   5.867 -0.1679 -0.6432  0.4098
 6054SOL    HW223988   2.322   1.306   5.807  0.7297 -1.0717  0.3109
 6054SOL    HW323989   2.363   1.232   5.932 -0.3340 -1.2869  0.5448
 6054SOL    MW423990   2.307   1.245   5.867 -0.4246 -0.5615 -0.0231
 6055SOL     OW23991   2.765   2.304   3.742 -0.1735  0.2403 -1.0132
 6055SOL    HW223992   2.783   2.212   3.763 -0.9765  0.5120  1.1842
 6055SOL    HW323993   2.850   2.347   3.748 -0.2284  0.1446  1.1789
 6055SOL    MW423994   2.779   2.297   3.746 -0.1281 -0.4623 -0.3977
 6056SOL     OW23995   4.206   5.376   2.499 -0.2182 -0.2900  0.3759
 6056SOL    HW223996   4.144   5.303   2.488 -0.6118  0.2021 -0.8688
 6056SOL    HW323997   4.185   5.436   2.427  3.1513 -1.1173 -1.4828
 6056SOL    MW423998   4.195   5.374   2.488  1.4842 -0.3553  0.5501
 6057SOL     OW23999   1.516   4.296   1.145  0.4896 -0.3291  0.1173
 6057SOL    HW224000   1.557   4.367   1.195 -0.9401  0.2794  0.4795
 6057SOL    HW324001   1.496   4.229   1.210 -1.3964  0.4737  0.4471
 6057SOL    MW424002   1.519   4.296   1.160 -0.2190 -0.8156 -0.1859
 6058SOL     OW24003   4.811   2.171   5.069  0.5596  0.2539 -0.3408
 6058SOL    HW224004   4.854   2.242   5.117 -1.7320  1.3075  0.3406
 6058SOL    HW324005   4.773   2.213   4.993  2.6340 -1.0905 -2.2336
 6058SOL    MW424006   4.811   2.186   5.066 -0.0331 -0.1662 -0.1756
 6059SOL     OW24007   5.964   0.985   3.830  0.4541 -0.2298 -0.3228
 6059SOL    HW224008   5.959   0.962   3.737 -1.4609  0.0566 -0.3114
 6059SOL    HW324009   6.058   0.999   3.845  0.8571 -0.7223 -2.0896
 6059SOL    MW424010   5.976   0.984   3.819 -0.1661 -0.1613 -0.1177
 6060SOL     OW24011   4.874   1.866   5.848 -0.6989  0.5325  0.1604
 6060SOL    HW224012   4.831   1.830   5.770 -0.0616 -0.0835  0.0825
 6060SOL    HW324013   4.963   1.832   5.844 -0.4015  1.2256  0.6914
 6060SOL    MW424014   4.880   1.857   5.837  0.5701  0.3277  0.1570
 6061SOL     OW24015   3.195   5.148   1.542 -0.3654  0.1381 -0.2775
 6061SOL    HW224016   3.145   5.069   1.524 -2.2091  0.6602  1.9701
 6061SOL    HW324017   3.236   5.132   1.628  1.4137  0.6663 -0.9675
 6061SOL    MW424018   3.194   5.136   1.551  0.3693  0.0693 -0.1184
 6062SOL     OW24019   5.825   0.542   2.243  0.8023  0.5124  0.2316
 6062SOL    HW224020   5.765   0.475   2.275  0.8124  0.1794 -0.4314
 6062SOL    HW324021   5.901   0.535   2.301  0.5116  0.4396  0.6134
 6062SOL    MW424022   5.827   0.532   2.255  0.8165  0.3248 -0.0811
 6063SOL     OW24023   3.314   5.365   3.849  0.2032  0.1511  0.3334
 6063SOL    HW224024   3.277   5.334   3.766 -0.2668 -1.0298  0.9583
 6063SOL    HW324025   3.286   5.456   3.855  0.4248  0.3221 -0.8987
 6063SOL    MW424026   3.306   5.373   3.838  0.2662 -0.1237  0.0438
 6064SOL     OW24027   0.437   4.786   4.953 -0.3181  0.1650  0.6162
 6064SOL    HW224028   0.487   4.806   5.032 -0.5945  0.1028  0.8056
 6064SOL    HW324029   0.463   4.697   4.930 -0.2508  0.1764  0.6474
 6064SOL    MW424030   0.447   4.777   4.960 -0.0928  0.5896 -0.3837
 6065SOL     OW24031   2.685   1.200   3.821  0.1538 -0.4751 -0.2878
 6065SOL    HW224032   2.591   1.182   3.812  0.5231 -2.4194 -0.7202
 6065SOL    HW324033   2.721   1.182   3.734  0.6071  2.9771 -0.9529
 6065SOL    MW424034   2.677   1.195   3.808  0.3089  0.1221  0.4783
 6066SOL     OW24035   1.952   2.144   0.925  0.0474  0.5781 -0.2060
 6066SOL    HW224036   1.882   2.118   0.985  1.2273  2.0433  1.9362
 6066SOL    HW324037   1.967   2.066   0.872 -2.0403 -0.3225  0.3971
 6066SOL    MW424038   1.945   2.130   0.926  0.3839 -0.8473  0.0202
 6067SOL     OW24039   4.843   0.097   5.877 -0.5667 -0.1593 -0.3907
 6067SOL    HW224040   4.914   0.158   5.900 -0.9764 -0.0384  0.5952
 6067SOL    HW324041   4.776   0.153   5.837  0.4527 -0.4689 -2.7406
 6067SOL    MW424042   4.844   0.113   5.875 -0.0820  0.3638  0.5278
 6068SOL     OW24043   1.409   1.717   4.642  0.6605  0.0666  0.3980
 6068SOL    HW224044   1.453   1.796   4.613 -0.4195  0.6192  0.2319
 6068SOL    HW324045   1.345   1.746   4.706  0.5885 -0.7313  0.7084
 6068SOL    MW424046   1.407   1.731   4.646  0.2383 -0.0693 -0.2140
 6069SOL     OW24047   1.324   3.527   4.812 -0.3156  0.1064  0.5319
 6069SOL    HW224048   1.275   3.559   4.888 -1.0562  0.8916 -0.2518
 6069SOL    HW324049   1.257   3.507   4.747  0.3661  1.0073 -0.4933
 6069SOL    MW424050   1.309   3.529   4.813 -0.3221 -0.5993 -0.1262
 6070SOL     OW24051   1.230   1.732   4.878  0.2580  0.3898 -0.1383
 6070SOL    HW224052   1.162   1.695   4.822  1.1515 -0.4318 -0.7011
 6070SOL    HW324053   1.196   1.721   4.967 -0.3701  0.0622 -0.4123
 6070SOL    MW424054   1.216   1.726   4.883 -0.4493  0.0957 -0.2256
 6071SOL     OW24055   1.036   1.938   3.871 -0.0309 -0.0091  0.1932
 6071SOL    HW224056   1.092   1.980   3.806 -0.7317 -1.9703 -1.8242
 6071SOL    HW324057   1.059   1.845   3.866 -2.4077 -0.6840  0.3105
 6071SOL    MW424058   1.046   1.931   3.861  0.3796  0.3051  0.0788
 6072SOL     OW24059   6.370   1.352   4.993  0.1483 -0.1531 -0.4699
 6072SOL    HW224060   6.300   1.287   4.993  0.9721 -1.0622 -0.4351
 6072SOL    HW324061   6.325   1.436   5.005 -0.9445 -0.6946 -0.6815
 6072SOL    MW424062   6.355   1.354   4.995  0.0116  0.4364  0.2483
 6073SOL     OW24063   0.172   6.315   1.640 -0.3267  0.1981 -0.0819
 6073SOL    HW224064   0.188   6.235   1.689 -0.1605 -0.9540 -1.9005
 6073SOL    HW324065   0.240   6.376   1.670 -0.1179 -0.5119  0.9393
 6073SOL    MW424066   0.183   6.313   1.650  0.4309 -0.1050 -0.1135
 6074SOL     OW24067   2.975   5.935   0.377 -0.4942 -0.6089  0.4352
 6074SOL    HW224068   2.927   5.992   0.317 -0.9770  0.3699  1.7041
 6074SOL    HW324069   3.014   5.868   0.320 -0.4493  0.5937 -1.0299
 6074SOL    MW424070   2.974   5.934   0.361 -0.4909 -0.2635 -0.1488
 6075SOL     OW24071   2.573   5.374   3.343 -0.0179  0.0421 -0.0044
 6075SOL    HW224072   2.668   5.363   3.340 -0.2295 -2.0817 -0.9327
 6075SOL    HW324073   2.543   5.353   3.254 -1.4257 -0.4063  0.5425
 6075SOL    MW424074   2.581   5.370   3.331 -0.8636  0.1812  0.4490
 6076SOL     OW24075   3.453   0.048   5.488 -0.3066 -0.4077 -0.1998
 6076SOL    HW224076   3.510   0.093   5.426  0.2563 -0.6914  0.1107
 6076SOL    HW324077   3.494   0.062   5.573 -0.6664 -0.6678  0.0174
 6076SOL    MW424078   3.466   0.056   5.491  0.3983  0.3510  0.0710
 6077SOL     OW24079   0.150   3.319   0.636 -0.6203  0.0306  0.2437
 6077SOL    HW224080   0.198   3.370   0.570 -1.5590 -0.9445 -1.2600
 6077SOL    HW324081   0.084   3.379   0.670 -1.0752  0.1240 -0.7846
 6077SOL    MW424082   0.148   3.334   0.632  0.2577  0.3911 -0.2744
 6078SOL     OW24083   6.236   3.708   3.374 -0.3419  0.1823 -0.0068
 6078SOL    HW224084   6.207   3.770   3.441 -1.2432  1.8145 -1.7789
 6078SOL    HW324085   6.318   3.745   3.341  0.1304 -0.6376  0.2398
 6078SOL    MW424086   6.243   3.721   3.379  0.4159  0.1163  0.4738
 6079SOL     OW24087   5.071   3.361   1.705 -0.3456  0.0594  0.5441
 6079SOL    HW224088   4.994   3.347   1.650  0.0754  0.4723 -0.1563
 6079SOL    HW324089   5.092   3.454   1.694 -0.3612  0.1956  1.5435
 6079SOL    MW424090   5.064   3.371   1.696 -0.1853 -0.1083 -0.1521
 6080SOL     OW24091   2.691   4.032   5.973  0.3892 -0.0274  0.0537
 6080SOL    HW224092   2.655   3.958   5.923  0.8737  0.1125 -0.5107
 6080SOL    HW324093   2.757   3.992   6.029  0.8526  0.0111 -0.4580
 6080SOL    MW424094   2.695   4.017   5.974  0.3799 -0.5364 -0.0836
 6081SOL     OW24095   2.826   4.162   4.842 -0.0242  0.4185  0.1856
 6081SOL    HW224096   2.837   4.108   4.763 -2.8635  0.5779 -0.4385
 6081SOL    HW324097   2.820   4.098   4.913  0.9975  0.1829  0.0738
 6081SOL    MW424098   2.827   4.146   4.841  0.0079 -0.1091  0.0393
 6082SOL     OW24099   2.532   4.384   4.941 -0.2785  0.9276 -0.2267
 6082SOL    HW224100   2.619   4.369   4.977 -0.2174 -1.1026 -1.0719
 6082SOL    HW324101   2.501   4.297   4.917 -2.1486  1.7189 -0.8610
 6082SOL    MW424102   2.539   4.370   4.943 -0.5963  0.0671  0.3839
 6083SOL     OW24103   2.144   0.887   2.070  0.2404  0.1283  0.1023
 6083SOL    HW224104   2.147   0.955   2.002  1.0225 -0.2769 -0.2755
 6083SOL    HW324105   2.106   0.931   2.146 -1.0676  0.4789 -0.7203
 6083SOL    MW424106   2.139   0.902   2.071 -0.1379 -0.0358  0.1893
 6084SOL     OW24107   2.886   0.342   0.578  0.2341  0.1263 -0.3318
 6084SOL    HW224108   2.801   0.304   0.554  0.0612  0.3534 -0.0874
 6084SOL    HW324109   2.948   0.299   0.519 -0.1835  0.7119 -1.2336
 6084SOL    MW424110   2.883   0.331   0.567 -0.1242  0.1243 -0.7948
 6085SOL     OW24111   4.927   2.234   2.036  0.2391 -0.7104  0.4057
 6085SOL    HW224112   4.890   2.281   1.960  1.9829 -1.0735 -0.7235
 6085SOL    HW324113   4.927   2.299   2.106  0.8387  0.4083 -0.5950
 6085SOL    MW424114   4.922   2.249   2.035  0.3275  0.0571  0.0473
 6086SOL     OW24115   3.561   0.112   0.270  0.2594 -0.2458 -0.2789
 6086SOL    HW224116   3.555   0.066   0.354 -0.5619 -1.1191 -0.7948
 6086SOL    HW324117   3.545   0.204   0.292 -1.0539 -0.6024  0.3945
 6086SOL    MW424118   3.558   0.118   0.284 -0.0762 -0.4252  0.0015
 6087SOL     OW24119   3.915   1.083   0.756  0.7743  0.2087  0.5261
 6087SOL    HW224120   3.953   1.170   0.763  1.3441  0.1684 -1.4717
 6087SOL    HW324121   3.991   1.024   0.757  0.3901 -0.3050  1.9644
 6087SOL    MW424122   3.930   1.086   0.757 -0.0284 -0.2955 -0.5039
 6088SOL     OW24123   3.177   1.898   5.440 -0.0258  0.6517 -0.3162
 6088SOL    HW224124   3.249   1.898   5.377 -0.2721  0.3869 -0.5994
 6088SOL    HW324125   3.193   1.975   5.494 -0.8088  1.9034 -1.8100
 6088SOL    MW424126   3.189   1.908   5.439 -0.0285  0.2445  0.2648
 6089SOL     OW24127   4.963   0.153   5.581  0.5121 -0.1047 -0.5029
 6089SOL    HW224128   4.956   0.061   5.607  1.1808 -0.1822 -0.5888
 6089SOL    HW324129   4.995   0.198   5.660 -1.5011  0.3639  0.1082
 6089SOL    MW424130   4.966   0.147   5.595 -0.0845 -0.7816  0.2936
 6090SOL     OW24131   6.047   4.533   1.604 -0.4111  0.2783 -0.6222
 6090SOL    HW224132   6.070   4.461   1.546 -0.7816  0.6333 -1.2233
 6090SOL    HW324133   6.130   4.557   1.646 -0.4588 -1.1037  0.3072
 6090SOL    MW424134   6.061   4.527   1.602 -0.7764 -0.6226 -0.9401
 6091SOL     OW24135   6.292   3.139   3.014  0.0948 -0.1115  0.0218
 6091SOL    HW224136   6.238   3.132   3.093 -0.7865  1.3092 -0.4318
 6091SOL    HW324137   6.339   3.221   3.024  0.8496 -0.4770 -0.4202
 6091SOL    MW424138   6.291   3.149   3.026  0.5780 -0.4001 -0.0275
 6092SOL     OW24139   6.113   5.103   4.108 -0.0573 -0.6820  0.0775
 6092SOL    HW224140   6.193   5.094   4.159 -0.0524 -0.6142  0.0818
 6092SOL    HW324141   6.119   5.190   4.069 -1.2140  0.2654  1.9190
 6092SOL    MW424142   6.125   5.113   4.109  0.0949 -0.4856 -0.3198
 6093SOL     OW24143   4.938   4.870   4.501 -0.1817  0.1254  0.8292
 6093SOL    HW224144   5.033   4.859   4.496 -0.0104  0.9672  1.7745
 6093SOL    HW324145   4.923   4.961   4.473 -1.0302 -0.8201 -2.0803
 6093SOL    MW424146   4.949   4.881   4.497 -0.0544 -0.0738  0.3242
 6094SOL     OW24147   3.235   3.771   3.610 -0.0118  0.1609 -0.2034
 6094SOL    HW224148   3.272   3.685   3.588 -0.5793 -0.1583  0.0681
 6094SOL    HW324149   3.271   3.791   3.697  1.2658  0.8685 -0.8672
 6094SOL    MW424150   3.245   3.762   3.619  0.0576 -0.6694  0.2219
 6095SOL     OW24151   0.081   1.976   5.977  0.3521 -0.2326  0.5826
 6095SOL    HW224152   0.151   1.942   6.034 -0.9657 -1.0826  1.7595
 6095SOL    HW324153   0.027   2.029   6.036 -1.2804 -1.4636  0.2509
 6095SOL    MW424154   0.083   1.978   5.992 -0.2998  0.3958  0.3729
 6096SOL     OW24155   1.198   2.671   5.189  0.5077  0.4658  0.3056
 6096SOL    HW224156   1.102   2.664   5.189  0.5050  0.4789  0.9224
 6096SOL    HW324157   1.215   2.764   5.207  0.6384  0.4349  0.3392
 6096SOL    MW424158   1.187   2.683   5.191 -0.1986 -0.0634 -0.6802
 6097SOL     OW24159   4.196   0.396   4.266 -0.1184 -0.0818  0.2691
 6097SOL    HW224160   4.289   0.413   4.283 -0.5746  1.3669  1.4858
 6097SOL    HW324161   4.194   0.367   4.174  1.2495  2.6415 -0.7474
 6097SOL    MW424162   4.208   0.395   4.256  0.0675  0.5422 -0.7535
 6098SOL     OW24163   3.838   1.973   4.086  0.3839  0.3621  0.1817
 6098SOL    HW224164   3.931   1.973   4.064  0.2680  0.1308 -0.3267
 6098SOL    HW324165   3.802   1.896   4.042 -0.3517  1.3325 -0.9989
 6098SOL    MW424166   3.845   1.963   4.077  0.5573  0.3448  0.6600
 6099SOL     OW24167   0.791   4.079   1.209 -0.2401 -0.3261  0.1595
 6099SOL    HW224168   0.711   4.061   1.259 -0.6425  1.9066  0.4310
 6099SOL    HW324169   0.862   4.060   1.270 -0.6550 -0.2019  0.6925
 6099SOL    MW424170   0.790   4.074   1.224 -0.5706 -0.8051  0.0276
 6100SOL     OW24171   2.572   3.916   3.606 -0.1285 -0.2615  0.0936
 6100SOL    HW224172   2.568   3.866   3.525  1.3611  0.1693 -0.2819
 6100SOL    HW324173   2.549   3.852   3.675 -1.8167 -0.5201 -0.6704
 6100SOL    MW424174   2.568   3.901   3.605 -0.5777 -0.1165 -0.0261
 6101SOL     OW24175   2.991   2.776   4.336  0.6612  0.1285  0.0525
 6101SOL    HW224176   2.982   2.861   4.292  0.8355  0.6093  0.9238
 6101SOL    HW324177   2.935   2.783   4.413  0.5121 -0.6319  0.0201
 6101SOL    MW424178   2.982   2.788   4.341 -0.0452 -0.4215  0.3903
 6102SOL     OW24179   0.123   0.781   2.988  0.2121  0.4383  0.0235
 6102SOL    HW224180   0.048   0.772   3.045 -0.8536 -2.6161 -1.6569
 6102SOL    HW324181   0.185   0.715   3.019  0.9175  0.8563 -0.4734
 6102SOL    MW424182   0.122   0.771   2.999 -0.3504  0.4454  0.5406
 6103SOL     OW24183   5.643   0.693   5.037 -0.2700  0.1406 -0.1717
 6103SOL    HW224184   5.564   0.640   5.048 -0.7725  0.6246 -1.2384
 6103SOL    HW324185   5.698   0.670   5.112  0.3088 -3.1654 -1.4465
 6103SOL    MW424186   5.640   0.683   5.048 -0.2018 -0.4236 -0.6008
 6104SOL     OW24187   1.069   0.679   1.926 -0.0941 -0.2018 -0.3829
 6104SOL    HW224188   1.101   0.610   1.984 -0.5646  0.7042  0.9946
 6104SOL    HW324189   0.978   0.693   1.954 -0.0680  0.8179 -0.7943
 6104SOL    MW424190   1.061   0.671   1.937  0.5476  0.1051 -0.4613
 6105SOL     OW24191   3.688   1.341   0.570 -0.2858 -0.2891 -0.1382
 6105SOL    HW224192   3.692   1.384   0.484 -0.1318  0.0468  0.0350
 6105SOL    HW324193   3.676   1.248   0.549 -0.0200 -0.2413 -0.5296
 6105SOL    MW424194   3.687   1.334   0.556  1.0423  0.1452 -0.1480
 6106SOL     OW24195   4.134   1.796   0.118  0.1892  0.5797  0.0281
 6106SOL    HW224196   4.148   1.823   0.209 -0.0253  1.3492 -0.1654
 6106SOL    HW324197   4.146   1.875   0.067 -1.1374  0.4627 -0.4863
 6106SOL    MW424198   4.138   1.810   0.124 -0.1863 -0.6008 -0.1185
 6107SOL     OW24199   3.291   6.093   1.641 -0.3214 -0.3468 -0.2783
 6107SOL    HW224200   3.349   6.164   1.667  0.6076 -0.5105 -1.8082
 6107SOL    HW324201   3.339   6.013   1.664 -0.4804 -0.4829 -0.4179
 6107SOL    MW424202   3.305   6.092   1.648  0.5233  0.1681  0.1311
 6108SOL     OW24203   1.523   1.062   0.117 -0.3921  0.5040  0.1242
 6108SOL    HW224204   1.444   1.112   0.137 -0.1745  1.2876 -0.8686
 6108SOL    HW324205   1.591   1.129   0.105  0.2435 -0.1163  0.1983
 6108SOL    MW424206   1.522   1.078   0.118 -0.4664  0.3028  0.0015
 6109SOL     OW24207   3.154   2.094   4.769 -0.3191  0.4399  0.7958
 6109SOL    HW224208   3.059   2.094   4.779 -0.1014 -0.6637  3.8115
 6109SOL    HW324209   3.176   2.005   4.742 -0.1157  0.7579 -0.1415
 6109SOL    MW424210   3.145   2.083   4.767  0.0233  0.4547 -0.2756
 6110SOL     OW24211   1.934   4.780   3.278  0.1233  0.2690  0.2029
 6110SOL    HW224212   1.990   4.778   3.200  2.1931 -1.1731  1.6154
 6110SOL    HW324213   1.852   4.740   3.250  0.3827  0.8400 -1.5126
 6110SOL    MW424214   1.931   4.775   3.264 -0.5291 -0.0231 -0.1884
 6111SOL     OW24215   3.136   5.734   4.167  0.1310  0.1723 -0.2826
 6111SOL    HW224216   3.172   5.809   4.214  0.8765  0.9001 -1.9504
 6111SOL    HW324217   3.187   5.659   4.198 -0.5392  0.3388  1.3095
 6111SOL    MW424218   3.147   5.734   4.178  0.1726  0.0206 -0.2782
 6112SOL     OW24219   2.683   0.310   0.902  0.0739 -0.7469 -0.1514
 6112SOL    HW224220   2.615   0.371   0.874 -0.2902 -1.0510  0.0629
 6112SOL    HW324221   2.706   0.262   0.822  0.2273 -0.4641 -0.2793
 6112SOL    MW424222   2.677   0.312   0.888  0.4658  0.2031 -0.2596
 6113SOL     OW24223   1.375   4.793   0.086 -0.2145  0.3061  0.1921
 6113SOL    HW224224   1.464   4.767   0.061  0.2849  1.1890  0.9672
 6113SOL    HW324225   1.340   4.837   0.009  0.5409  1.1753  0.3244
 6113SOL    MW424226   1.382   4.796   0.073 -0.1430  0.0111  0.2080
 6114SOL     OW24227   1.239   5.763   4.476  0.7315  0.1368 -0.1294
 6114SOL    HW224228   1.174   5.824   4.512 -0.7586 -1.7784  0.6408
 6114SOL    HW324229   1.318   5.778   4.528 -0.1407  0.2457  1.2236
 6114SOL    MW424230   1.241   5.773   4.488  0.1168 -0.1374  0.0801
 6115SOL     OW24231   5.150   4.483   5.089  0.0882 -0.3179  0.0665
 6115SOL    HW224232   5.105   4.496   5.172 -0.7562  1.6662 -0.6369
 6115SOL    HW324233   5.224   4.544   5.092  0.8242 -1.1612 -0.1540
 6115SOL    MW424234   5.154   4.493   5.101 -0.1982 -0.0488  0.4974
 6116SOL     OW24235   1.738   0.028   0.929  0.6734 -0.5436  0.5355
 6116SOL    HW224236   1.793   0.051   0.854  2.2666  0.9539  2.0576
 6116SOL    HW324237   1.782  -0.045   0.971 -0.1866 -1.3456  0.0812
 6116SOL    MW424238   1.751   0.022   0.925 -0.9044 -0.2415 -0.0945
 6117SOL     OW24239   6.401   4.988   2.500 -0.6750 -0.1167  0.1432
 6117SOL    HW224240   6.343   4.918   2.470  0.0465  0.0960 -1.9508
 6117SOL    HW324241   6.462   5.001   2.427  0.2537  1.5537  1.1497
 6117SOL    MW424242   6.401   4.981   2.486 -0.1384  0.3831  0.1821
 6118SOL     OW24243   0.685   1.320   3.839  0.1303 -0.3709 -0.3518
 6118SOL    HW224244   0.743   1.309   3.915 -0.5896 -0.5735  0.1796
 6118SOL    HW324245   0.707   1.247   3.781  1.1279  0.1459 -0.6342
 6118SOL    MW424246   0.696   1.309   3.842 -0.0160  0.0448 -0.0698
 6119SOL     OW24247   2.424   5.583   5.963  0.0940  0.6873  0.0088
 6119SOL    HW224248   2.459   5.620   5.881  0.4870 -0.1168 -0.1927
 6119SOL    HW324249   2.497   5.535   6.001 -0.0073  1.2682  0.9820
 6119SOL    MW424250   2.438   5.582   5.957  0.4824 -0.1734  0.2722
 6120SOL     OW24251   2.783   1.788   2.466  0.0549 -0.0307  0.0543
 6120SOL    HW224252   2.777   1.731   2.390  0.8663  0.3541 -0.3181
 6120SOL    HW324253   2.768   1.876   2.432 -0.1938  0.0830  0.4477
 6120SOL    MW424254   2.781   1.792   2.452  0.4907 -0.2753  0.1256
 6121SOL     OW24255   0.505   6.049   0.614 -0.2266 -0.1080 -0.2462
 6121SOL    HW224256   0.413   6.061   0.635 -0.2158 -2.2598  1.4563
 6121SOL    HW324257   0.523   6.111   0.544 -1.7156  3.8400  2.5368
 6121SOL    MW424258   0.495   6.059   0.608  0.6890 -0.4040 -0.4551
 6122SOL     OW24259   1.166   1.799   3.490  0.4272  0.1858  0.4063
 6122SOL    HW224260   1.084   1.802   3.539  0.3696 -1.0158  0.4016
 6122SOL    HW324261   1.150   1.736   3.420  0.4092  2.0612 -1.3735
 6122SOL    MW424262   1.154   1.791   3.487  0.1208  0.5790  0.3629
 6123SOL     OW24263   4.304   4.169   3.040  0.4692  0.1178 -0.1941
 6123SOL    HW224264   4.341   4.137   3.123 -0.5757  0.5367  0.4595
 6123SOL    HW324265   4.246   4.241   3.066 -1.7664 -1.2861 -1.0238
 6123SOL    MW424266   4.301   4.174   3.055 -0.2222 -0.1036  0.5878
 6124SOL     OW24267   1.107   3.708   3.545  0.1822  0.5691  0.4779
 6124SOL    HW224268   1.012   3.709   3.543  0.1378 -0.4357  1.3800
 6124SOL    HW324269   1.133   3.711   3.453 -0.6676  2.5555  0.2571
 6124SOL    MW424270   1.098   3.709   3.533 -0.6520  0.7106  0.1636
 6125SOL     OW24271   1.625   3.259   5.744  0.6910  0.0224 -0.3666
 6125SOL    HW224272   1.695   3.309   5.786  0.2967  0.5887 -0.3706
 6125SOL    HW324273   1.655   3.169   5.747  1.4118  0.2541 -0.3428
 6125SOL    MW424274   1.639   3.254   5.750  0.1017  0.4190  0.0270
 6126SOL     OW24275   5.197   2.873   2.109  0.3673 -0.3717 -0.1301
 6126SOL    HW224276   5.270   2.894   2.051 -0.2913 -0.1654 -0.8916
 6126SOL    HW324277   5.231   2.892   2.197  0.7519  1.1238 -0.5747
 6126SOL    MW424278   5.211   2.878   2.113  0.5217 -0.5407  0.0975
 6127SOL     OW24279   3.264   2.011   2.336 -0.4920  0.3845 -0.0356
 6127SOL    HW224280   3.240   2.021   2.244 -1.7185 -2.8503 -0.2124
 6127SOL    HW324281   3.198   1.952   2.372  0.2793  1.0675  2.8221
 6127SOL    MW424282   3.252   2.005   2.329  0.1050 -0.1918 -0.5572
 6128SOL     OW24283   4.303   2.807   6.068  0.3790 -0.2697 -0.2401
 6128SOL    HW224284   4.294   2.896   6.034 -0.2475 -1.2156 -2.7307
 6128SOL    HW324285   4.214   2.776   6.080  0.5888 -0.6877  0.2662
 6128SOL    MW424286   4.290   2.815   6.065 -0.0149 -0.1163  0.2951
 6129SOL     OW24287   2.502   5.173   2.089 -0.7559 -0.3593  0.2977
 6129SOL    HW224288   2.517   5.094   2.037 -0.4864 -0.5808  0.7040
 6129SOL    HW324289   2.576   5.230   2.068 -1.3683  0.1278 -0.6119
 6129SOL    MW424290   2.514   5.170   2.079 -0.2114  0.0282 -0.0615
 6130SOL     OW24291   1.652   0.110   3.296 -0.3019  0.0034 -0.0423
 6130SOL    HW224292   1.729   0.057   3.276 -0.7569 -0.9117  0.5337
 6130SOL    HW324293   1.681   0.201   3.284  1.1011 -0.2764  0.9647
 6130SOL    MW424294   1.666   0.115   3.292  0.7947  0.2387 -0.3309
 6131SOL     OW24295   1.325   6.388   2.563  0.2711  0.5203  0.4250
 6131SOL    HW224296   1.242   6.367   2.605 -0.4487 -2.0784 -1.9937
 6131SOL    HW324297   1.381   6.313   2.583  0.5049  0.1122 -1.5509
 6131SOL    MW424298   1.321   6.375   2.571  0.2022 -0.2965  0.1796
 6132SOL     OW24299   3.202   3.939   6.322 -0.0847 -0.0239  0.0022
 6132SOL    HW224300   3.177   3.926   6.413  0.2904 -0.3527  0.0628
 6132SOL    HW324301   3.201   3.851   6.284  3.3844 -0.5017  0.6483
 6132SOL    MW424302   3.199   3.925   6.329 -0.3404 -0.3467 -0.6557
 6133SOL     OW24303   4.811   0.081   2.773 -0.1640  0.4142 -0.4188
 6133SOL    HW224304   4.827   0.070   2.679 -0.0985 -3.6386 -0.1023
 6133SOL    HW324305   4.898   0.097   2.810 -0.0201  0.8134 -0.9092
 6133SOL    MW424306   4.825   0.082   2.765  0.0442 -0.4302  0.2515
 6134SOL     OW24307   0.134   4.157   3.209  0.0440  0.7854  0.5691
 6134SOL    HW224308   0.188   4.214   3.155 -1.0717  1.0332 -0.3131
 6134SOL    HW324309   0.122   4.206   3.290  1.6369  0.4551  1.0487
 6134SOL    MW424310   0.140   4.171   3.213 -0.3326  0.3910  0.0696
 6135SOL     OW24311   4.424   4.110   6.086 -0.3683  0.5609 -0.6280
 6135SOL    HW224312   4.446   4.031   6.137 -0.8736 -0.6816 -2.2703
 6135SOL    HW324313   4.509   4.142   6.054 -0.1515  0.7879  0.1287
 6135SOL    MW424314   4.438   4.104   6.089 -0.6549  0.4265 -0.0255
 6136SOL     OW24315   4.041   5.624   1.419 -0.1259 -0.3945  0.0345
 6136SOL    HW224316   4.134   5.626   1.398 -0.2656  1.8941 -0.6991
 6136SOL    HW324317   4.009   5.711   1.395 -2.4047 -1.0091  0.5406
 6136SOL    MW424318   4.049   5.636   1.413  0.3240  0.7666 -0.0472
 6137SOL     OW24319   5.493   4.760   1.236 -0.1574  0.0992 -0.2678
 6137SOL    HW224320   5.520   4.744   1.145  1.3724 -0.8821  0.3247
 6137SOL    HW324321   5.554   4.708   1.289 -1.1630  0.4729  1.3228
 6137SOL    MW424322   5.504   4.751   1.231 -0.2520  0.4375  0.1068
 6138SOL     OW24323   3.623   0.168   5.300  0.1446  0.0030 -0.6857
 6138SOL    HW224324   3.717   0.174   5.314  0.0429  0.9341 -0.3088
 6138SOL    HW324325   3.613   0.162   5.205  0.6085 -0.8193 -0.6865
 6138SOL    MW424326   3.634   0.168   5.290 -0.8870 -0.2225 -0.0316
 6139SOL     OW24327   2.905   4.434   0.123  0.5073 -0.0983 -0.5644
 6139SOL    HW224328   2.923   4.516   0.077  1.3674 -0.0147 -0.0895
 6139SOL    HW324329   2.906   4.458   0.216 -0.1225 -0.4833 -0.4512
 6139SOL    MW424330   2.907   4.448   0.129  0.4408 -0.2797 -0.8265
 6140SOL     OW24331   2.132   1.360   1.054  0.2819 -0.1095  0.0456
 6140SOL    HW224332   2.205   1.408   1.094 -0.1444  1.2748 -0.7598
 6140SOL    HW324333   2.070   1.346   1.125  0.6361  0.1159  0.4044
 6140SOL    MW424334   2.134   1.365   1.068 -0.2770  0.0889  0.2484
 6141SOL     OW24335   3.315   3.300   4.961  0.2810 -0.3798 -0.5984
 6141SOL    HW224336   3.240   3.331   5.011 -0.1788  0.9432 -2.0322
 6141SOL    HW324337   3.279   3.271   4.877  1.2762 -0.3908 -1.0478
 6141SOL    MW424338   3.301   3.300   4.956  0.2444 -0.1321 -0.2257
 6142SOL     OW24339   5.238   2.399   3.703  0.5281 -0.1228  0.2411
 6142SOL    HW224340   5.159   2.371   3.748 -0.4690 -0.0417 -1.3950
 6142SOL    HW324341   5.289   2.444   3.770 -0.0339 -1.6220  1.7329
 6142SOL    MW424342   5.235   2.401   3.717 -0.0425  0.1187  1.0217
 6143SOL     OW24343   3.244   5.042   5.835 -0.2509  0.6666 -0.6293
 6143SOL    HW224344   3.280   4.955   5.818 -1.9479 -0.2888  0.3350
 6143SOL    HW324345   3.281   5.066   5.920 -0.4675  0.4673 -0.4741
 6143SOL    MW424346   3.253   5.033   5.844 -0.3148  0.6742 -0.2044
 6144SOL     OW24347   5.685   4.975   2.912  0.0599  0.2306 -0.2698
 6144SOL    HW224348   5.727   5.001   2.830 -0.7939 -0.0790 -0.8282
 6144SOL    HW324349   5.630   5.050   2.935  0.1656  0.2471 -0.0712
 6144SOL    MW424350   5.683   4.989   2.904  0.0976  0.1360 -0.0137
 6145SOL     OW24351   2.332   4.614   5.267  0.0425 -0.2308  0.2736
 6145SOL    HW224352   2.367   4.644   5.183  0.0722  1.6122  0.8950
 6145SOL    HW324353   2.382   4.535   5.288  2.8846  1.4737  0.4406
 6145SOL    MW424354   2.343   4.607   5.259 -0.3280 -0.1225 -0.3478
 6146SOL     OW24355   0.555   1.381   3.291  0.1227  0.1710  0.1607
 6146SOL    HW224356   0.503   1.344   3.362  1.6038  1.1362  1.8227
 6146SOL    HW324357   0.566   1.473   3.315 -0.7298  0.9761 -2.1930
 6146SOL    MW424358   0.549   1.389   3.303 -0.0163  0.0050 -0.2441
 6147SOL     OW24359   5.803   2.998   2.652 -0.1307  0.1171 -0.0111
 6147SOL    HW224360   5.831   2.993   2.743  0.4827  0.0545 -0.2029
 6147SOL    HW324361   5.788   2.907   2.626 -3.1489  0.2393  0.8822
 6147SOL    MW424362   5.805   2.985   2.660 -0.2511  0.3879  0.0170
 6148SOL     OW24363   6.047   0.568   0.404  0.1336  0.4919  0.0945
 6148SOL    HW224364   5.972   0.626   0.395 -0.4867 -0.3014 -0.0229
 6148SOL    HW324365   6.123   0.625   0.395 -0.4352  1.5253  1.4363
 6148SOL    MW424366   6.047   0.583   0.402  0.1072 -0.0257 -0.1550
 6149SOL     OW24367   1.272   1.588   3.643  0.0517  0.5822 -0.2274
 6149SOL    HW224368   1.255   1.656   3.577 -0.6381 -0.6545 -1.3739
 6149SOL    HW324369   1.224   1.619   3.721 -0.8160  1.0923 -0.9368
 6149SOL    MW424370   1.263   1.601   3.645 -0.1182 -0.3934  0.3612
 6150SOL     OW24371   6.226   3.026   0.606  0.7089 -0.1176  0.3543
 6150SOL    HW224372   6.135   3.029   0.636  0.5906  1.2138 -0.0829
 6150SOL    HW324373   6.230   2.951   0.547 -0.2841  0.2257 -0.1702
 6150SOL    MW424374   6.215   3.017   0.602  0.3537  0.0989  0.5936
 6151SOL     OW24375   5.640   1.476   0.565 -0.6488 -0.4647  0.3048
 6151SOL    HW224376   5.566   1.534   0.585 -0.5868 -0.5810  0.9126
 6151SOL    HW324377   5.717   1.528   0.587 -0.5295 -0.2326 -0.6248
 6151SOL    MW424378   5.640   1.490   0.571 -0.4667  0.2695  0.7182
 6152SOL     OW24379   6.352   3.625   2.665  0.0382  0.4227 -0.0394
 6152SOL    HW224380   6.439   3.662   2.679 -0.4189  1.1303  1.1232
 6152SOL    HW324381   6.362   3.567   2.590  1.8025 -0.5242  0.8608
 6152SOL    MW424382   6.365   3.623   2.657  0.0601  0.5652 -0.5541
 6153SOL     OW24383   5.285   3.149   1.686 -0.4240 -0.0373  0.0759
 6153SOL    HW224384   5.230   3.225   1.668  1.0503  0.5608 -2.4224
 6153SOL    HW324385   5.374   3.181   1.678  0.2792 -1.6139  1.0336
 6153SOL    MW424386   5.289   3.163   1.683 -0.1880  0.2530 -0.3658
 6154SOL     OW24387   1.626   5.771   1.590 -0.1029  1.0959  0.3200
 6154SOL    HW224388   1.540   5.767   1.633  0.6625  1.4349  1.9305
 6154SOL    HW324389   1.611   5.729   1.505 -1.8126  0.9591  0.6422
 6154SOL    MW424390   1.612   5.765   1.584 -0.8865  0.1036 -0.1328
 6155SOL     OW24391   5.112   4.039   3.058 -0.5181 -0.0391  0.4837
 6155SOL    HW224392   5.081   3.985   3.131 -0.7426 -1.4191 -0.5858
 6155SOL    HW324393   5.089   4.128   3.083 -1.0356 -0.5310  1.8707
 6155SOL    MW424394   5.105   4.044   3.071  0.7781  0.0539  0.1750
 6156SOL     OW24395   6.023   5.007   2.008  0.0457 -0.2036  0.4247
 6156SOL    HW224396   6.052   5.098   1.999 -2.5455  0.8686  1.9482
 6156SOL    HW324397   5.991   4.984   1.921 -0.5932  0.8781  0.3470
 6156SOL    MW424398   6.023   5.016   1.995  0.0172 -0.3017  0.2535
 6157SOL     OW24399   3.233   4.777   3.078 -0.4055 -0.4088  0.5949
 6157SOL    HW224400   3.211   4.755   3.169  1.4753  0.5099  1.3389
 6157SOL    HW324401   3.225   4.872   3.074 -0.2749 -0.4266 -0.1379
 6157SOL    MW424402   3.229   4.787   3.090  0.1225 -0.4040  0.3171
 6158SOL     OW24403   6.156   5.909   0.805  0.5554  0.5349  0.3799
 6158SOL    HW224404   6.170   6.004   0.802  0.2322  0.5608 -1.0206
 6158SOL    HW324405   6.199   5.881   0.886 -0.3366  2.0265  1.4149
 6158SOL    MW424406   6.163   5.918   0.815  0.3381 -0.5664  0.0142
 6159SOL     OW24407   4.261   5.607   3.877 -0.2596 -0.3908 -0.3519
 6159SOL    HW224408   4.180   5.611   3.928 -0.5773  0.0255 -0.8709
 6159SOL    HW324409   4.256   5.683   3.819  0.5690 -0.2908 -0.3010
 6159SOL    MW424410   4.250   5.617   3.876 -0.5411  0.4736  0.1790
 6160SOL     OW24411   0.489   4.665   2.733 -0.6900  0.7439  0.0564
 6160SOL    HW224412   0.446   4.736   2.686 -0.2878  0.8190 -0.2007
 6160SOL    HW324413   0.570   4.704   2.767 -1.2691  0.8627  1.3477
 6160SOL    MW424414   0.494   4.680   2.732  0.1187 -0.2030 -0.2923
 6161SOL     OW24415   0.788   1.438   1.664 -0.1130 -0.1163  0.3491
 6161SOL    HW224416   0.758   1.356   1.624 -0.4919 -0.8782  2.0854
 6161SOL    HW324417   0.854   1.411   1.727  0.7788  1.0819 -0.0318
 6161SOL    MW424418   0.793   1.424   1.667 -0.2876  0.2433  0.1788
 6162SOL     OW24419   3.804   4.719   1.520 -1.2634 -0.5621  0.8876
 6162SOL    HW224420   3.718   4.687   1.495 -1.2767 -0.2280  0.5047
 6162SOL    HW324421   3.801   4.813   1.505 -1.7298 -0.0912  3.4251
 6162SOL    MW424422   3.793   4.727   1.515  0.3843 -0.5146 -0.0645
 6163SOL     OW24423   0.199   1.523   5.559 -0.4560 -0.4860 -0.4259
 6163SOL    HW224424   0.265   1.560   5.500  2.1380 -0.8056  2.0466
 6163SOL    HW324425   0.162   1.599   5.604 -0.7152 -0.3926 -0.7989
 6163SOL    MW424426   0.203   1.538   5.557 -0.3861  0.4455 -0.1866
 6164SOL     OW24427   4.968   6.048   0.717 -0.1770 -0.0830  0.2509
 6164SOL    HW224428   4.961   6.116   0.785  2.4735 -0.6868  1.2594
 6164SOL    HW324429   4.882   6.005   0.718  0.4417 -1.9582  5.4024
 6164SOL    MW424430   4.956   6.051   0.726 -0.2540  0.1399  0.2061
 6165SOL     OW24431   5.741   3.732   5.185 -0.1771 -0.4340 -0.3607
 6165SOL    HW224432   5.720   3.762   5.274  1.5792  0.6211 -0.2635
 6165SOL    HW324433   5.684   3.785   5.128  1.5431  1.8452 -0.0657
 6165SOL    MW424434   5.730   3.743   5.189 -0.3089 -0.0088  0.7118
 6166SOL     OW24435   3.466   4.222   6.144 -0.2471  0.7167 -0.6112
 6166SOL    HW224436   3.506   4.304   6.171 -0.7544  1.5514 -2.2143
 6166SOL    HW324437   3.373   4.234   6.163 -0.0799 -0.3130  1.0044
 6166SOL    MW424438   3.459   4.235   6.150 -0.3827 -0.3829  0.1738
 6167SOL     OW24439   3.019   6.129   1.640 -0.4684 -0.1476  1.0530
 6167SOL    HW224440   2.995   6.117   1.548 -0.9896 -0.7868  1.2600
 6167SOL    HW324441   3.114   6.118   1.641 -0.6426 -2.1081  0.8526
 6167SOL    MW424442   3.029   6.126   1.628 -0.1719 -0.1468  0.7613
 6168SOL     OW24443   3.778   0.070   2.159 -0.2628 -0.0904 -0.1953
 6168SOL    HW224444   3.689   0.092   2.186 -1.0628 -0.0309 -2.6400
 6168SOL    HW324445   3.790  -0.020   2.189 -0.9369  0.0822  0.6365
 6168SOL    MW424446   3.768   0.061   2.167 -0.2774  0.3309 -0.0492
 6169SOL     OW24447   6.149   0.295   2.465 -0.1855 -0.4501 -0.1854
 6169SOL    HW224448   6.223   0.281   2.407  0.2885  0.2224  0.2401
 6169SOL    HW324449   6.117   0.382   2.443 -0.5572 -0.5483 -0.0447
 6169SOL    MW424450   6.154   0.304   2.455 -0.3311  0.1263  0.2143
 6170SOL     OW24451   1.867   1.904   2.927  0.4114 -0.0812 -0.5721
 6170SOL    HW224452   1.847   1.811   2.915 -0.2992 -0.0731  0.5056
 6170SOL    HW324453   1.957   1.905   2.959  0.6883 -0.3403 -1.3015
 6170SOL    MW424454   1.876   1.892   2.929  0.5757 -0.2466 -0.5641
 6171SOL     OW24455   2.024   2.111   2.139 -0.4133 -0.1523 -0.0761
 6171SOL    HW224456   2.049   2.174   2.207 -0.6787 -0.7018  0.5474
 6171SOL    HW324457   1.980   2.041   2.187  0.8125 -1.3255 -0.6196
 6171SOL    MW424458   2.021   2.110   2.154  0.1278 -0.0249 -0.4598
 6172SOL     OW24459   5.026   0.640   4.522  0.2946  0.4314 -0.4861
 6172SOL    HW224460   4.940   0.634   4.481  0.8547  1.3455 -1.8860
 6172SOL    HW324461   5.078   0.691   4.460  1.7260  0.2632  0.5327
 6172SOL    MW424462   5.021   0.646   4.509  0.2056 -0.1048  0.0029
 6173SOL     OW24463   3.281   5.573   1.280 -0.3717  0.2274  0.8675
 6173SOL    HW224464   3.225   5.606   1.209 -1.2930  0.7819  1.8167
 6173SOL    HW324465   3.221   5.561   1.354  0.9155  1.8368  2.2571
 6173SOL    MW424466   3.265   5.576   1.280  0.3339 -0.5659 -0.0535
 6174SOL     OW24467   4.370   4.402   3.492  0.5569  0.5276  0.0013
 6174SOL    HW224468   4.437   4.379   3.427 -0.6892 -2.1679 -0.4687
 6174SOL    HW324469   4.354   4.321   3.540 -1.4997  1.3792  0.8880
 6174SOL    MW424470   4.377   4.388   3.490 -0.9482 -0.1865 -0.2787
 6175SOL     OW24471   3.757   1.336   1.650 -0.1401  0.1572 -0.6256
 6175SOL    HW224472   3.765   1.323   1.745 -1.7316 -1.6913 -0.6796
 6175SOL    HW324473   3.770   1.249   1.613 -2.8916  0.1449 -1.7957
 6175SOL    MW424474   3.760   1.323   1.658  0.1066  0.6557  0.6087
 6176SOL     OW24475   4.501   1.280   1.321 -0.1092 -0.0575  0.1667
 6176SOL    HW224476   4.594   1.280   1.300 -0.2913 -0.6201 -0.7226
 6176SOL    HW324477   4.459   1.315   1.242 -0.7451 -1.0694  0.0393
 6176SOL    MW424478   4.508   1.284   1.307  0.0562 -0.0722  0.5986
 6177SOL     OW24479   3.526   4.931   6.233  0.7224  0.1677  0.1943
 6177SOL    HW224480   3.524   4.997   6.164  1.1324  0.2252  0.2320
 6177SOL    HW324481   3.498   4.978   6.312 -0.0435  0.0248  0.0064
 6177SOL    MW424482   3.522   4.946   6.234 -0.1270 -0.4118 -0.8501
 6178SOL     OW24483   1.587   1.529   5.821 -0.4012 -0.5894 -0.0796
 6178SOL    HW224484   1.585   1.491   5.733 -0.4140 -1.4606  0.2853
 6178SOL    HW324485   1.647   1.473   5.870  1.5749  1.3051 -0.1521
 6178SOL    MW424486   1.595   1.517   5.816  0.1798  0.0497 -0.3439
 6179SOL     OW24487   5.548   2.771   2.290 -0.1139  0.2902  0.0900
 6179SOL    HW224488   5.557   2.724   2.207 -1.2649  0.0405  0.0870
 6179SOL    HW324489   5.515   2.705   2.352 -1.0312  0.8984  0.2689
 6179SOL    MW424490   5.545   2.756   2.287 -0.2913  0.0518  0.0504
 6180SOL     OW24491   1.032   3.913   1.685  0.0262  0.2904  0.1647
 6180SOL    HW224492   1.000   3.825   1.669 -1.0352  0.6659  0.1738
 6180SOL    HW324493   1.029   3.924   1.780  0.2311  0.3077  0.1698
 6180SOL    MW424494   1.028   3.903   1.695  0.4323 -0.4079 -0.7442
 6181SOL     OW24495   5.725   4.402   3.344  0.0694  0.3787 -0.9438
 6181SOL    HW224496   5.803   4.389   3.397 -1.1103 -0.3891  0.7156
 6181SOL    HW324497   5.678   4.474   3.388 -1.0690 -0.4585 -0.7295
 6181SOL    MW424498   5.729   4.410   3.357  0.0546 -0.0744  0.0263
 6182SOL     OW24499   5.534   0.484   4.285 -0.1430 -0.2959  0.1422
 6182SOL    HW224500   5.502   0.555   4.340 -1.5322 -1.0638  0.3590
 6182SOL    HW324501   5.618   0.460   4.325 -0.4597  0.1065  1.0864
 6182SOL    MW424502   5.541   0.490   4.298  0.3444  0.3938 -0.2842
 6183SOL     OW24503   5.010   4.565   3.796 -0.2714 -0.0735 -0.2831
 6183SOL    HW224504   4.950   4.639   3.789 -1.0060 -0.5191  1.0325
 6183SOL    HW324505   4.952   4.489   3.803  0.4348 -0.5170  0.9728
 6183SOL    MW424506   4.994   4.565   3.796  0.6368 -0.3948  0.1295
 6184SOL     OW24507   1.140   3.240   2.092  0.5904  0.2020  0.1166
 6184SOL    HW224508   1.209   3.178   2.069  0.5972 -0.0939  0.9111
 6184SOL    HW324509   1.120   3.221   2.184 -0.9951 -0.1693 -0.2672
 6184SOL    MW424510   1.146   3.230   2.101 -0.2929 -0.4203  0.0851
 6185SOL     OW24511   4.208   1.608   1.075  0.3437 -0.0334  0.2676
 6185SOL    HW224512   4.279   1.584   1.015 -1.4412  0.0984 -2.0455
 6185SOL    HW324513   4.157   1.527   1.084 -1.1896  0.7238 -1.0620
 6185SOL    MW424514   4.210   1.594   1.068 -0.1383 -0.3874  0.1625
 6186SOL     OW24515   6.067   1.813   0.611  0.3267 -0.2112 -0.4146
 6186SOL    HW224516   6.160   1.800   0.629  0.7914  0.2134 -2.2813
 6186SOL    HW324517   6.057   1.908   0.603 -0.5814 -0.1415  1.1463
 6186SOL    MW424518   6.078   1.824   0.612  0.5445  0.1412  0.0279
 6187SOL     OW24519   1.629   3.431   1.899 -0.0473 -0.9591 -0.8397
 6187SOL    HW224520   1.635   3.488   1.823 -0.1086 -0.0766 -0.2013
 6187SOL    HW324521   1.574   3.358   1.870 -2.3724  0.6940 -0.8815
 6187SOL    MW424522   1.622   3.429   1.886  0.0512 -0.0305  0.0586
 6188SOL     OW24523   4.955   4.851   2.551  0.6417 -0.3568 -0.1948
 6188SOL    HW224524   5.001   4.912   2.494 -1.2318 -1.9313 -3.6645
 6188SOL    HW324525   4.999   4.767   2.538  0.2977 -0.7234  0.8874
 6188SOL    MW424526   4.967   4.848   2.542  0.2878 -0.4078  0.3928
 6189SOL     OW24527   1.563   5.679   4.185 -0.5094  0.2774 -0.2137
 6189SOL    HW224528   1.481   5.728   4.189 -0.1407  1.0808 -1.5987
 6189SOL    HW324529   1.593   5.674   4.275 -1.8608  0.3405  0.2632
 6189SOL    MW424530   1.556   5.684   4.197  0.2598  0.0434 -0.3589
 6190SOL     OW24531   5.519   4.529   0.216 -0.0543  0.5840  0.8110
 6190SOL    HW224532   5.600   4.509   0.263  0.3043  0.8858  0.3223
 6190SOL    HW324533   5.468   4.581   0.278  0.1908  0.5315  1.0604
 6190SOL    MW424534   5.523   4.533   0.230  0.2862 -0.6746  0.5621
 6191SOL     OW24535   4.664   5.536   1.680  0.1628  0.0020 -0.3867
 6191SOL    HW224536   4.742   5.590   1.690 -1.3993  2.0850  1.4510
 6191SOL    HW324537   4.591   5.598   1.685 -1.6781 -1.7241 -2.8941
 6191SOL    MW424538   4.664   5.551   1.682 -0.4107  0.1156  0.0287
 6192SOL     OW24539   2.477   5.948   3.249 -0.4231  0.2649  0.4835
 6192SOL    HW224540   2.449   5.962   3.159  0.6780 -0.8434 -0.0528
 6192SOL    HW324541   2.439   6.022   3.297  1.3997  2.6084 -1.4017
 6192SOL    MW424542   2.468   5.960   3.244  0.1262 -0.4661 -0.3863
 6193SOL     OW24543   1.855   3.633   2.297 -0.4860  0.3779 -0.0145
 6193SOL    HW224544   1.937   3.615   2.251 -0.2666  1.0663  0.0941
 6193SOL    HW324545   1.875   3.708   2.354 -0.7802 -0.3645  1.1135
 6193SOL    MW424546   1.868   3.641   2.299  0.0644 -0.0137 -0.1011
 6194SOL     OW24547   5.488   6.210   3.173 -0.2792 -0.6857  0.0432
 6194SOL    HW224548   5.571   6.220   3.126 -0.1052  0.9511  0.6370
 6194SOL    HW324549   5.446   6.134   3.132  1.2857 -1.2410 -0.5897
 6194SOL    MW424550   5.493   6.202   3.161  0.5047 -0.2950  0.0046
 6195SOL     OW24551   6.183   3.490   6.399  0.1768  0.1020  0.0989
 6195SOL    HW224552   6.234   3.434   6.458  2.2580  0.9870 -0.7588
 6195SOL    HW324553   6.125   3.539   6.458  1.6248  0.3836  1.3553
 6195SOL    MW424554   6.182   3.489   6.415  0.3829  0.4334  0.4776
 6196SOL     OW24555   3.175   5.572   3.190  0.4469  1.0391 -0.3542
 6196SOL    HW224556   3.092   5.535   3.159  0.5930 -0.2378  0.6559
 6196SOL    HW324557   3.205   5.629   3.119 -0.7732  0.7040 -1.1680
 6196SOL    MW424558   3.168   5.574   3.177 -0.1097 -0.0184 -0.4517
 6197SOL     OW24559   2.440   5.045   5.330 -0.2340 -0.2124  0.1642
 6197SOL    HW224560   2.427   5.138   5.317 -1.6103 -0.5141 -0.8043
 6197SOL    HW324561   2.484   5.039   5.415 -0.0289  1.3081  0.1948
 6197SOL    MW424562   2.444   5.056   5.340 -0.0780 -0.2098  0.5792
 6198SOL     OW24563   3.620   3.202   5.569 -0.6418  0.0463 -0.7266
 6198SOL    HW224564   3.655   3.162   5.489  0.5509 -1.5121  0.5032
 6198SOL    HW324565   3.661   3.288   5.574  1.2542 -0.8277 -0.5402
 6198SOL    MW424566   3.630   3.208   5.559  0.0905  0.1739 -1.0002
 6199SOL     OW24567   5.865   5.269   4.592  0.4829  0.3255  0.5755
 6199SOL    HW224568   5.939   5.290   4.535  0.1270 -0.1079 -0.0724
 6199SOL    HW324569   5.812   5.209   4.539  0.1517 -0.1015  1.3840
 6199SOL    MW424570   5.868   5.264   4.577  0.3932  0.3060 -0.1467
 6200SOL     OW24571   3.586   3.350   6.107  0.0740  0.3921 -0.1953
 6200SOL    HW224572   3.529   3.366   6.182 -1.1396 -0.1718 -0.9712
 6200SOL    HW324573   3.634   3.271   6.130  1.3168  1.4192  0.8866
 6200SOL    MW424574   3.585   3.342   6.120  0.4743 -0.1981  0.2368
 6201SOL     OW24575   5.908   4.804   1.019  0.2648 -0.4616  0.0728
 6201SOL    HW224576   5.863   4.888   1.033 -1.1023 -0.9637 -1.0825
 6201SOL    HW324577   5.886   4.752   1.096  1.2231  0.2443  0.8588
 6201SOL    MW424578   5.899   4.808   1.031 -0.1759 -0.6192 -0.0234
 6202SOL     OW24579   4.499   6.078   3.617  0.1301  0.4583  0.2633
 6202SOL    HW224580   4.419   6.030   3.639 -0.2667  1.4324  1.0274
 6202SOL    HW324581   4.566   6.010   3.609  0.1703 -0.1033  3.8660
 6202SOL    MW424582   4.497   6.063   3.619  0.3362 -0.3657  0.1486
 6203SOL     OW24583   2.130   1.735   1.026  0.1607  0.4603  0.6574
 6203SOL    HW224584   2.038   1.749   1.004  0.2881 -2.0000 -2.2009
 6203SOL    HW324585   2.176   1.809   0.987 -0.4936  0.9388  0.7888
 6203SOL    MW424586   2.124   1.746   1.018 -0.4282  0.3444  0.5356
 6204SOL     OW24587   4.857   3.725   2.566 -0.2970 -0.1379 -0.6972
 6204SOL    HW224588   4.803   3.737   2.488 -1.7244 -1.2150  0.0753
 6204SOL    HW324589   4.924   3.662   2.539 -0.4915 -0.1408 -1.1744
 6204SOL    MW424590   4.859   3.718   2.552 -0.0903  0.1647 -0.0336
 6205SOL     OW24591   1.715   1.851   4.022  0.0655 -0.0060  0.4218
 6205SOL    HW224592   1.667   1.896   4.091 -0.4366  0.1804 -0.0497
 6205SOL    HW324593   1.781   1.914   3.993  0.3588 -0.1285  0.8054
 6205SOL    MW424594   1.718   1.865   4.027  0.2796 -0.3089 -0.2361
 6206SOL     OW24595   2.996   5.637   5.248 -0.7688  0.2414 -0.0955
 6206SOL    HW224596   2.971   5.692   5.174  0.4759  1.0388  0.0519
 6206SOL    HW324597   3.052   5.693   5.302  0.5800 -1.1698  0.0353
 6206SOL    MW424598   3.000   5.652   5.246  0.0503  0.5576  0.0202
 6207SOL     OW24599   4.988   2.046   2.903 -0.1056 -0.0357  0.0872
 6207SOL    HW224600   4.992   1.981   2.973  0.1496  0.2411  0.3297
 6207SOL    HW324601   5.046   2.116   2.932  0.6114 -0.2624 -0.7623
 6207SOL    MW424602   4.996   2.047   2.916  0.1655  0.4652 -0.1201
 6208SOL     OW24603   0.383   5.024   2.323  0.0935  0.2295 -0.5661
 6208SOL    HW224604   0.401   4.969   2.399  0.1678 -0.4135 -1.0482
 6208SOL    HW324605   0.435   4.986   2.252 -0.7923  0.1851 -1.2063
 6208SOL    MW424606   0.392   5.012   2.324 -0.4267  0.3527 -1.2896
 6209SOL     OW24607   0.322   3.475   0.451  0.8199 -0.1664  0.3948
 6209SOL    HW224608   0.265   3.504   0.380  0.0056 -2.0305  0.2331
 6209SOL    HW324609   0.395   3.537   0.450 -1.7665  3.2213  1.5062
 6209SOL    MW424610   0.324   3.487   0.441  0.0347 -0.1972 -0.4298
 6210SOL     OW24611   0.217   3.505   1.868 -0.3902 -0.1010  0.1051
 6210SOL    HW224612   0.185   3.494   1.957 -0.7822  0.1100 -0.0044
 6210SOL    HW324613   0.145   3.550   1.822  0.1241  0.5244 -0.1064
 6210SOL    MW424614   0.203   3.510   1.874  0.3839 -0.0683 -1.2039
 6211SOL     OW24615   0.416   0.659   2.765 -0.0411 -0.3643 -0.1181
 6211SOL    HW224616   0.421   0.593   2.834  1.1626  0.6943  0.8333
 6211SOL    HW324617   0.425   0.608   2.684  1.4325 -1.3293  0.6033
 6211SOL    MW424618   0.418   0.643   2.763  0.9088 -0.1537  0.0979
 6212SOL     OW24619   5.140   4.688   2.924  0.1305  0.1748 -0.5029
 6212SOL    HW224620   5.127   4.761   2.985  1.3933 -0.8109  1.0381
 6212SOL    HW324621   5.055   4.677   2.881 -1.1140  0.3277  1.7583
 6212SOL    MW424622   5.127   4.696   2.926 -0.2937  0.3014  0.3384
 6213SOL     OW24623   3.764   0.912   6.333 -0.1777 -0.1266 -0.0188
 6213SOL    HW224624   3.709   0.975   6.379 -0.2335  0.0482 -0.3246
 6213SOL    HW324625   3.806   0.963   6.263 -0.5255 -0.5091 -0.5143
 6213SOL    MW424626   3.762   0.927   6.330 -0.2131  0.4829  0.2227
 6214SOL     OW24627   2.223   0.905   3.256 -0.2059  0.1027 -0.2715
 6214SOL    HW224628   2.146   0.872   3.303 -0.0708 -0.6993 -0.6068
 6214SOL    HW324629   2.297   0.860   3.296 -0.1584 -1.2714 -1.8054
 6214SOL    MW424630   2.223   0.895   3.268  0.0873  1.0596 -0.3744
 6215SOL     OW24631   0.143   2.151   0.437  0.6509  0.1238  0.7264
 6215SOL    HW224632   0.129   2.178   0.346  0.5691  1.0436  0.9986
 6215SOL    HW324633   0.176   2.062   0.431  0.6617  0.1824 -0.2101
 6215SOL    MW424634   0.145   2.143   0.424 -0.8203  0.1735 -0.3379
 6216SOL     OW24635   0.039   5.670   3.726  0.3866  0.0668  0.3125
 6216SOL    HW224636   0.095   5.739   3.762 -0.3365 -0.0807  1.7792
 6216SOL    HW324637   0.070   5.590   3.768  2.1046 -0.8136 -2.3557
 6216SOL    MW424638   0.050   5.668   3.737  0.0920  0.5825 -0.5685
 6217SOL     OW24639   5.111   2.078   4.788  0.5371 -0.4948 -0.2902
 6217SOL    HW224640   5.168   2.033   4.725 -0.8855  0.5696 -2.4234
 6217SOL    HW324641   5.072   2.007   4.839  1.3793 -1.4160 -0.8792
 6217SOL    MW424642   5.113   2.063   4.787  0.4406  0.2104 -0.4182
 6218SOL     OW24643   5.917   4.409   4.035 -0.0091 -0.4841 -0.3512
 6218SOL    HW224644   6.001   4.368   4.016 -0.1492 -1.2501  0.6486
 6218SOL    HW324645   5.940   4.498   4.064  0.4623 -0.7513  0.0996
 6218SOL    MW424646   5.931   4.415   4.036 -0.5886  0.0387 -0.0729
 6219SOL     OW24647   6.337   6.385   0.143  0.2335 -0.1977 -0.0259
 6219SOL    HW224648   6.375   6.459   0.191 -0.1898  0.5630 -0.8311
 6219SOL    HW324649   6.332   6.416   0.052 -1.1442 -0.7414 -0.1561
 6219SOL    MW424650   6.342   6.399   0.137  0.2236  0.7512  0.1930
 6220SOL     OW24651   4.667   0.301   1.754 -0.3031  0.2034 -0.4589
 6220SOL    HW224652   4.734   0.282   1.687 -0.5390 -0.8159 -0.4231
 6220SOL    HW324653   4.658   0.396   1.752  1.6314  0.4392 -0.0108
 6220SOL    MW424654   4.675   0.311   1.745 -0.0157 -0.0021 -0.1280
 6221SOL     OW24655   1.341   3.173   5.849  0.0161 -0.0237  0.4262
 6221SOL    HW224656   1.368   3.081   5.847  0.8293  0.2039 -1.3231
 6221SOL    HW324657   1.253   3.172   5.887 -0.8048 -1.7643 -1.3638
 6221SOL    MW424658   1.333   3.161   5.854 -0.7104  0.0358  0.8331
 6222SOL     OW24659   6.355   5.259   0.247  0.0259  0.3727 -0.1818
 6222SOL    HW224660   6.372   5.194   0.179  2.5721 -0.2549  0.9623
 6222SOL    HW324661   6.332   5.208   0.324 -2.9860  1.0882 -0.4638
 6222SOL    MW424662   6.354   5.244   0.248 -0.1801 -0.0791  0.0964
 6223SOL     OW24663   1.532   4.939   6.224  0.3256 -1.0589  0.0538
 6223SOL    HW224664   1.437   4.932   6.231  0.4742 -1.6846  2.0427
 6223SOL    HW324665   1.548   4.947   6.130 -1.7404  0.1149 -0.2751
 6223SOL    MW424666   1.521   4.939   6.212 -0.0749  0.9300 -0.1438
 6224SOL     OW24667   1.652   3.234   4.010 -0.2751  0.0503  0.2620
 6224SOL    HW224668   1.652   3.182   3.929 -1.2910  0.0437  0.2554
 6224SOL    HW324669   1.559   3.247   4.030 -0.0431  1.5858  0.4503
 6224SOL    MW424670   1.640   3.229   4.002  0.5515  0.1726 -0.0850
 6225SOL     OW24671   1.275   4.003   2.701 -0.1934 -0.3825 -0.9476
 6225SOL    HW224672   1.322   3.972   2.623 -0.9469 -1.8637 -0.8529
 6225SOL    HW324673   1.279   3.929   2.762 -1.2120  0.0714 -0.2997
 6225SOL    MW424674   1.282   3.989   2.699 -0.2181 -0.6714  0.3153
 6226SOL     OW24675   3.901   1.517   4.137  0.5680  0.0084  0.1633
 6226SOL    HW224676   3.865   1.456   4.073  0.1071 -0.1021  0.5223
 6226SOL    HW324677   3.996   1.504   4.131  0.4820 -0.6698  0.1569
 6226SOL    MW424678   3.909   1.507   4.128 -0.3665 -0.4175  0.4014
 6227SOL     OW24679   5.892   3.740   1.812  0.3660 -0.4043 -0.4261
 6227SOL    HW224680   5.914   3.657   1.854 -2.2683 -0.1931  1.7227
 6227SOL    HW324681   5.964   3.799   1.834 -0.7129 -0.3778  3.9979
 6227SOL    MW424682   5.904   3.737   1.821  0.0910 -0.2812  0.2595
 6228SOL     OW24683   4.325   3.114   5.249 -0.3975  0.3777  0.4718
 6228SOL    HW224684   4.416   3.119   5.279  0.0435 -0.0291 -0.7354
 6228SOL    HW324685   4.284   3.193   5.285  0.5170  0.7386  0.7628
 6228SOL    MW424686   4.331   3.125   5.258 -0.1518  0.1114  0.8089
 6229SOL     OW24687   2.130   2.570   2.434  0.3246 -0.5434  0.1874
 6229SOL    HW224688   2.087   2.638   2.382  0.7906 -0.3833  0.0077
 6229SOL    HW324689   2.113   2.489   2.386  2.2383 -0.1941 -1.2155
 6229SOL    MW424690   2.122   2.568   2.420  0.5087  0.3611  0.3932
 6230SOL     OW24691   6.224   4.791   2.403 -0.6753  0.3884  0.0589
 6230SOL    HW224692   6.251   4.718   2.459 -1.3834  0.0766  0.0017
 6230SOL    HW324693   6.129   4.792   2.408 -0.6765  1.3084  0.0503
 6230SOL    MW424694   6.215   4.782   2.411 -0.0849  0.2421  0.1462
 6231SOL     OW24695   0.715   5.409   0.218 -0.4022 -0.1510  0.4552
 6231SOL    HW224696   0.801   5.367   0.215 -0.0629  0.4828  1.0029
 6231SOL    HW324697   0.705   5.450   0.133  0.7013  1.4197  1.0388
 6231SOL    MW424698   0.725   5.409   0.207 -0.2896 -0.1046  0.4843
 6232SOL     OW24699   4.673   1.173   4.709  0.1938  0.6200 -0.1420
 6232SOL    HW224700   4.657   1.081   4.727 -2.0594  1.2382  1.4193
 6232SOL    HW324701   4.720   1.206   4.785 -1.8195  1.3918  0.8382
 6232SOL    MW424702   4.677   1.165   4.721  0.3145 -0.4593  0.2087
 6233SOL     OW24703   6.227   2.389   0.331  0.9675  0.3896  0.2054
 6233SOL    HW224704   6.293   2.448   0.294  1.0122  1.1568  1.4426
 6233SOL    HW324705   6.237   2.399   0.426  0.3839 -0.9695  0.4235
 6233SOL    MW424706   6.237   2.398   0.339  0.0598 -0.1160 -0.0375
 6234SOL     OW24707   1.301   3.929   6.098 -0.0673 -0.3129 -0.5563
 6234SOL    HW224708   1.296   3.876   6.177  0.9028 -1.9742 -1.5504
 6234SOL    HW324709   1.230   3.993   6.108 -0.8355 -1.3340  1.0269
 6234SOL    MW424710   1.291   3.931   6.109  0.2380 -0.3446 -0.4430
 6235SOL     OW24711   1.293   3.520   0.669  0.2196  0.2510 -0.3962
 6235SOL    HW224712   1.356   3.455   0.640  0.0400 -0.1701  0.1404
 6235SOL    HW324713   1.222   3.469   0.709  0.4028  0.7990  0.6558
 6235SOL    MW424714   1.292   3.505   0.670 -0.3395  0.1733 -0.1695
 6236SOL     OW24715   2.552   4.509   3.224 -0.5897  0.3641  0.4242
 6236SOL    HW224716   2.476   4.526   3.279 -2.9602 -0.9851 -2.1844
 6236SOL    HW324717   2.548   4.576   3.157  0.1099 -0.1434 -0.1335
 6236SOL    MW424718   2.541   4.520   3.223 -0.7768 -0.2062  0.0043
 6237SOL     OW24719   5.522   3.308   4.612  0.4704  0.2236 -0.2128
 6237SOL    HW224720   5.499   3.234   4.556  0.8697 -0.3044  0.3058
 6237SOL    HW324721   5.616   3.299   4.626  0.1804 -0.3743  1.5429
 6237SOL    MW424722   5.532   3.297   4.606  0.4284  0.4457 -0.5661
 6238SOL     OW24723   4.199   2.959   1.050 -0.3933  0.1101 -0.4810
 6238SOL    HW224724   4.146   2.916   0.982 -0.5467 -1.9661  0.8805
 6238SOL    HW324725   4.185   2.906   1.128 -1.4009  3.2433  1.6439
 6238SOL    MW424726   4.190   2.946   1.051 -0.2500 -0.5970 -0.0814
 6239SOL     OW24727   1.264   3.460   1.949 -0.2353 -0.5133  0.2192
 6239SOL    HW224728   1.338   3.501   1.993  0.3955 -1.0847 -0.2871
 6239SOL    HW324729   1.237   3.389   2.006 -0.1790 -0.5122  0.2468
 6239SOL    MW424730   1.270   3.456   1.962  0.3517 -0.0004 -0.0650
 6240SOL     OW24731   2.559   3.620   3.119  0.0660 -0.5453 -0.0639
 6240SOL    HW224732   2.551   3.665   3.204 -0.0188  2.5474 -1.5573
 6240SOL    HW324733   2.486   3.559   3.117 -0.7041  0.2582  1.5968
 6240SOL    MW424734   2.548   3.618   3.130  0.0569  0.3319 -0.2678
 6241SOL     OW24735   4.319   5.463   0.284 -0.0175 -0.2615 -0.2367
 6241SOL    HW224736   4.280   5.441   0.368  2.4944 -0.9830  0.8444
 6241SOL    HW324737   4.324   5.559   0.283  0.5138 -0.2701  0.7562
 6241SOL    MW424738   4.315   5.473   0.295  0.3915  0.0424  0.3937
 6242SOL     OW24739   2.388   1.705   4.038 -0.3447 -0.2034  0.3842
 6242SOL    HW224740   2.430   1.691   3.953 -1.6535  0.4240 -0.3942
 6242SOL    HW324741   2.312   1.647   4.038 -0.5947  0.1105  0.9683
 6242SOL    MW424742   2.384   1.695   4.027 -0.1884 -0.3496  0.0374
 6243SOL     OW24743   0.917   5.156   2.992 -0.1814 -0.2172  0.4890
 6243SOL    HW224744   0.999   5.175   3.037 -0.3816  0.0215  0.7615
 6243SOL    HW324745   0.932   5.184   2.902  0.1590 -0.5201  0.4510
 6243SOL    MW424746   0.929   5.162   2.986 -1.1734 -0.4191  0.0529
 6244SOL     OW24747   0.912   2.452   3.125  0.4950 -0.2529 -1.0270
 6244SOL    HW224748   0.960   2.387   3.176  0.9883 -0.0420 -1.2132
 6244SOL    HW324749   0.829   2.463   3.172 -0.0960 -1.8604 -1.6308
 6244SOL    MW424750   0.907   2.445   3.138  0.0625 -0.0101 -0.1797
 6245SOL     OW24751   1.611   3.038   1.168 -0.3245  0.2867  0.9465
 6245SOL    HW224752   1.686   3.011   1.220 -0.6208 -1.7175  0.4411
 6245SOL    HW324753   1.588   3.125   1.200  2.8251  1.4352  0.3837
 6245SOL    MW424754   1.618   3.046   1.179 -0.4181  0.3547 -0.3108
 6246SOL     OW24755   3.824   3.072   1.703 -0.6132 -0.3197 -0.1185
 6246SOL    HW224756   3.809   3.129   1.779 -0.9340 -1.4795  0.7087
 6246SOL    HW324757   3.892   3.011   1.731  0.3354  0.1698 -1.2937
 6246SOL    MW424758   3.831   3.072   1.717 -0.0747  0.0624  0.2397
 6247SOL     OW24759   4.489   5.163   5.413  0.2165 -0.1234 -0.1940
 6247SOL    HW224760   4.550   5.235   5.427 -2.1668  2.2586 -1.1831
 6247SOL    HW324761   4.427   5.169   5.486  0.1839 -1.4534 -0.0769
 6247SOL    MW424762   4.489   5.173   5.425  0.2755  0.1783  0.1881
 6248SOL     OW24763   2.879   4.570   4.488  0.5841  0.0046 -0.2409
 6248SOL    HW224764   2.910   4.661   4.481  0.9456 -0.1510 -0.7944
 6248SOL    HW324765   2.889   4.548   4.580 -0.8965  0.9999  0.1880
 6248SOL    MW424766   2.885   4.579   4.499 -0.3349 -0.4168  0.2203
 6249SOL     OW24767   5.595   0.598   0.898 -0.0166 -0.2587 -0.5187
 6249SOL    HW224768   5.650   0.519   0.894  0.2631 -0.0916 -0.1302
 6249SOL    HW324769   5.510   0.566   0.926  0.1880 -0.3893 -0.0221
 6249SOL    MW424770   5.591   0.583   0.901  0.4004  0.1819 -0.2968
 6250SOL     OW24771   4.482   4.575   2.395 -0.0997 -0.6334  0.0318
 6250SOL    HW224772   4.568   4.616   2.398 -0.1757 -0.2928 -1.4586
 6250SOL    HW324773   4.474   4.527   2.478  1.4904 -0.6288  0.2016
 6250SOL    MW424774   4.492   4.574   2.406 -0.5625  0.5238  0.9107
 6251SOL     OW24775   1.487   5.853   1.967  0.2062 -0.3109 -0.3631
 6251SOL    HW224776   1.522   5.765   1.958  1.8002  0.4106 -1.9383
 6251SOL    HW324777   1.562   5.910   1.950 -0.8652  1.3463  0.2597
 6251SOL    MW424778   1.502   5.849   1.963  0.1990  0.1215  0.1163
 6252SOL     OW24779   1.396   2.445   0.756 -0.0834 -0.2277  0.3039
 6252SOL    HW224780   1.306   2.419   0.775  0.2236 -1.0392  0.7412
 6252SOL    HW324781   1.408   2.528   0.802 -0.3577 -0.5458  0.9665
 6252SOL    MW424782   1.386   2.452   0.765 -0.7938  0.6738 -0.0528
 6253SOL     OW24783   4.938   0.062   1.239 -0.3695  0.0039 -0.2966
 6253SOL    HW224784   4.987  -0.019   1.231 -0.3152 -0.0398  0.4067
 6253SOL    HW324785   4.860   0.038   1.289  0.0349  0.5285  0.6210
 6253SOL    MW424786   4.934   0.048   1.244  0.3584 -0.0705  0.1439
 6254SOL     OW24787   1.959   2.486   1.591  0.2305 -0.2293  0.3455
 6254SOL    HW224788   1.886   2.429   1.566  1.1116 -1.9960  1.6675
 6254SOL    HW324789   1.920   2.550   1.650 -0.2589 -1.2890  1.2120
 6254SOL    MW424790   1.944   2.487   1.595 -0.4153 -0.5739 -0.1165
 6255SOL     OW24791   5.514   1.072   3.089  0.3150 -0.7879  0.3523
 6255SOL    HW224792   5.446   1.016   3.050 -0.2717  0.4285 -0.4462
 6255SOL    HW324793   5.577   1.085   3.018  0.1111  0.0805  0.3230
 6255SOL    MW424794   5.513   1.066   3.074  0.0149 -0.5603  0.5735
 6256SOL     OW24795   5.975   0.785   5.069 -0.2841 -0.3858  0.1954
 6256SOL    HW224796   6.064   0.819   5.081  0.5179 -1.9873 -0.7969
 6256SOL    HW324797   5.920   0.842   5.121  1.1905  1.3373 -0.0444
 6256SOL    MW424798   5.980   0.797   5.077 -0.4191 -0.1509  0.1253
 6257SOL     OW24799   3.271   6.154   3.971  0.1821  0.3749 -0.0663
 6257SOL    HW224800   3.269   6.066   3.933 -1.4322  1.1614 -1.9433
 6257SOL    HW324801   3.351   6.155   4.023  0.9652 -1.7642 -1.1026
 6257SOL    MW424802   3.282   6.143   3.973 -0.3241  0.5008 -0.0636
 6258SOL     OW24803   0.726   2.210   6.266 -0.0673  0.0786  0.3009
 6258SOL    HW224804   0.712   2.304   6.275  2.1449  0.6538 -1.3418
 6258SOL    HW324805   0.769   2.200   6.181 -2.2853 -2.7015 -0.6497
 6258SOL    MW424806   0.730   2.221   6.256  0.5469  0.0081 -0.0073
 6259SOL     OW24807   1.189   1.985   2.750 -0.1416 -0.5660 -0.2671
 6259SOL    HW224808   1.119   2.039   2.787  0.2343 -0.9034  0.9656
 6259SOL    HW324809   1.145   1.905   2.722 -0.5842  0.0638 -1.4736
 6259SOL    MW424810   1.174   1.982   2.751  0.1983  0.0698 -0.0943
 6260SOL     OW24811   1.858   2.604   3.423 -0.7624  0.0315  0.2867
 6260SOL    HW224812   1.803   2.554   3.363 -0.3107 -0.9377  0.6613
 6260SOL    HW324813   1.935   2.628   3.371 -1.1353  0.6469  0.0084
 6260SOL    MW424814   1.861   2.600   3.408 -0.3125  0.1556  0.1445
 6261SOL     OW24815   3.301   5.719   3.673  0.3727  0.0880 -0.3127
 6261SOL    HW224816   3.266   5.655   3.611  2.7749 -1.2171 -0.4305
 6261SOL    HW324817   3.234   5.725   3.741 -1.4681  0.1383 -2.0308
 6261SOL    MW424818   3.287   5.712   3.674 -0.3553  0.1884  0.0562
 6262SOL     OW24819   6.251   0.895   1.508 -0.1253  0.1789 -0.1537
 6262SOL    HW224820   6.268   0.803   1.529 -0.3718 -0.1860 -1.4171
 6262SOL    HW324821   6.174   0.918   1.560 -0.7389 -0.6796 -0.6517
 6262SOL    MW424822   6.243   0.886   1.517 -0.3905  0.6423 -0.7050
 6263SOL     OW24823   1.142   0.972   4.185 -0.5458  0.4046 -0.0412
 6263SOL    HW224824   1.217   0.974   4.126 -0.6015 -0.2694 -0.1396
 6263SOL    HW324825   1.152   0.891   4.235  1.0300  2.2309  2.9258
 6263SOL    MW424826   1.153   0.962   4.184  0.1400  0.1122 -0.3172
 6264SOL     OW24827   1.904   0.619   5.190 -0.3090  0.1089 -0.3042
 6264SOL    HW224828   1.966   0.675   5.143 -1.1158  1.5409  0.2692
 6264SOL    HW324829   1.958   0.573   5.254  0.6234 -1.0110 -1.8091
 6264SOL    MW424830   1.919   0.621   5.192  0.5568 -0.0638  0.3114
 6265SOL     OW24831   0.621   4.193   2.237 -0.1082  0.3432  0.1081
 6265SOL    HW224832   0.530   4.175   2.260  0.8253 -1.6195  2.8164
 6265SOL    HW324833   0.657   4.238   2.313  1.1213  1.4916 -1.0858
 6265SOL    MW424834   0.614   4.197   2.250  0.4362  0.2749  0.1665
 6266SOL     OW24835   5.217   3.814   5.364 -0.4353  0.7734 -0.5076
 6266SOL    HW224836   5.301   3.836   5.406 -0.9509  0.8490  0.5245
 6266SOL    HW324837   5.237   3.740   5.307  0.1042 -0.0174  0.6602
 6266SOL    MW424838   5.231   3.808   5.362  0.1194 -0.4957 -0.0849
 6267SOL     OW24839   4.407   5.470   5.465  0.1236  0.3776 -0.3076
 6267SOL    HW224840   4.438   5.554   5.432 -0.9239  0.4693 -1.0994
 6267SOL    HW324841   4.311   5.478   5.466 -0.0250 -1.0171 -0.9673
 6267SOL    MW424842   4.398   5.482   5.461  0.1132  0.4783 -0.1898
 6268SOL     OW24843   4.376   0.120   3.052 -0.1002  0.3043  0.1859
 6268SOL    HW224844   4.292   0.122   3.098 -0.3093  1.8238 -0.2078
 6268SOL    HW324845   4.415   0.036   3.078 -1.0954  0.2100  1.5170
 6268SOL    MW424846   4.370   0.109   3.062  0.1634  0.1618  0.3968
 6269SOL     OW24847   0.805   0.828   1.978  0.1100 -0.3554  0.2195
 6269SOL    HW224848   0.747   0.754   1.960 -0.8293  0.7032 -1.2719
 6269SOL    HW324849   0.835   0.856   1.892 -0.7200  1.9333  0.6329
 6269SOL    MW424850   0.801   0.822   1.964  0.6526  0.1891 -0.2868
 6270SOL     OW24851   4.227   0.424   3.258 -0.1894 -0.1092 -0.1932
 6270SOL    HW224852   4.287   0.476   3.204 -0.0458 -0.0685  0.0067
 6270SOL    HW324853   4.206   0.348   3.203  1.4258 -1.0253  0.3945
 6270SOL    MW424854   4.232   0.421   3.243 -0.6586  0.0471 -0.3712
 6271SOL     OW24855   1.023   2.562   6.213 -0.3095 -0.3957  0.2135
 6271SOL    HW224856   1.084   2.603   6.274 -0.9293 -0.7178  1.0670
 6271SOL    HW324857   1.064   2.478   6.191 -0.1502 -0.3401  0.2938
 6271SOL    MW424858   1.036   2.556   6.218 -0.2183  0.1636  0.1608
 6272SOL     OW24859   0.728   2.269   0.739  0.3432 -0.4519  0.6264
 6272SOL    HW224860   0.666   2.225   0.680  1.3350  1.9303 -2.4291
 6272SOL    HW324861   0.674   2.328   0.791 -0.1429  0.9525 -1.3831
 6272SOL    MW424862   0.713   2.271   0.738  0.1132 -0.1601 -0.7807
 6273SOL     OW24863   0.669   0.410   5.539  0.1362 -0.6531  0.2516
 6273SOL    HW224864   0.731   0.410   5.613 -0.3385 -3.2483  0.7436
 6273SOL    HW324865   0.703   0.478   5.480  1.8951 -0.1358  1.7428
 6273SOL    MW424866   0.682   0.419   5.541  1.1649 -0.0914 -0.3118
 6274SOL     OW24867   2.969   4.214   2.512  0.1084  0.2398  0.0761
 6274SOL    HW224868   2.889   4.216   2.563  0.1106 -0.6439  0.1187
 6274SOL    HW324869   3.037   4.188   2.574 -0.0715 -1.9610 -0.5883
 6274SOL    MW424870   2.968   4.211   2.526 -0.7391 -0.0716  0.5269
 6275SOL     OW24871   2.859   1.591   2.637 -0.0713  0.4352  0.1835
 6275SOL    HW224872   2.835   1.667   2.584  1.0230  1.0418  0.5429
 6275SOL    HW324873   2.948   1.608   2.666  0.0953 -0.8607  0.5103
 6275SOL    MW424874   2.867   1.603   2.633 -0.3862  0.0569 -0.1512
 6276SOL     OW24875   0.454   1.221   2.270 -0.2341 -0.0776 -0.0703
 6276SOL    HW224876   0.411   1.194   2.351 -3.1828  0.2833 -1.3649
 6276SOL    HW324877   0.470   1.139   2.223 -1.9966 -0.1110 -0.6760
 6276SOL    MW424878   0.450   1.207   2.275 -0.2091 -0.4651  0.8793
 6277SOL     OW24879   4.500   1.412   5.238 -0.5232 -0.1849  0.3897
 6277SOL    HW224880   4.469   1.363   5.313 -1.0189 -0.8851 -0.2550
 6277SOL    HW324881   4.511   1.501   5.270  0.1227 -0.6417  1.5111
 6277SOL    MW424882   4.497   1.417   5.252  0.2807  0.0178  0.3027
 6278SOL     OW24883   4.670   5.119   1.676  0.1787 -0.1229  0.6422
 6278SOL    HW224884   4.630   5.157   1.597  0.1257 -1.5288 -0.0479
 6278SOL    HW324885   4.670   5.190   1.740  0.1533  1.0421 -0.6003
 6278SOL    MW424886   4.665   5.134   1.674 -0.5931  0.2820 -0.0648
 6279SOL     OW24887   3.046   2.872   5.962  0.6381  0.1628 -0.0248
 6279SOL    HW224888   3.103   2.938   5.921  0.6131 -0.0104 -0.3379
 6279SOL    HW324889   2.993   2.922   6.025 -0.2356  0.6526 -1.1210
 6279SOL    MW424890   3.046   2.888   5.965 -0.2839 -0.0599 -0.0824
 6280SOL     OW24891   3.300   5.163   1.801  0.0180 -0.8115 -0.0969
 6280SOL    HW224892   3.211   5.187   1.827 -0.0121  0.6825 -1.4307
 6280SOL    HW324893   3.357   5.211   1.861 -0.0760  1.1292 -1.4570
 6280SOL    MW424894   3.295   5.172   1.812  0.0443 -0.2664 -0.3069
 6281SOL     OW24895   3.299   4.985   4.065 -0.0091  0.2214  0.5638
 6281SOL    HW224896   3.319   4.949   3.979 -0.0714  0.2133  0.5525
 6281SOL    HW324897   3.288   5.078   4.050  1.0036  0.3858  0.7349
 6281SOL    MW424898   3.300   4.992   4.052 -0.6647 -0.3184 -0.3095
 6282SOL     OW24899   0.664   0.766   2.797  0.4189 -0.0164 -0.1609
 6282SOL    HW224900   0.656   0.860   2.786  0.4632  0.1976  1.4097
 6282SOL    HW324901   0.574   0.733   2.791  0.1469  0.3928  1.2339
 6282SOL    MW424902   0.651   0.774   2.795 -0.1768 -0.4460  0.0580
 6283SOL     OW24903   4.758   5.278   3.510 -0.0002 -0.2916 -0.3315
 6283SOL    HW224904   4.677   5.314   3.545 -0.5484 -1.4315 -0.3893
 6283SOL    HW324905   4.815   5.354   3.498  0.0762  0.2228  2.5852
 6283SOL    MW424906   4.755   5.293   3.513  1.1280  0.7477  0.1489
 6284SOL     OW24907   1.750   3.187   5.106 -0.6140  0.3306 -0.4582
 6284SOL    HW224908   1.657   3.207   5.099 -0.8130 -0.2697  0.3485
 6284SOL    HW324909   1.753   3.093   5.123  0.1078  0.4604  0.1785
 6284SOL    MW424910   1.738   3.177   5.108  0.2940  0.1178  0.1479
 6285SOL     OW24911   3.849   0.604   1.654 -0.1853 -0.3783 -0.1968
 6285SOL    HW224912   3.888   0.532   1.605  0.4487 -0.4168  0.3570
 6285SOL    HW324913   3.756   0.580   1.660 -0.2741 -0.3952 -1.3184
 6285SOL    MW424914   3.842   0.591   1.648  0.3666 -0.3282  0.7677
 6286SOL     OW24915   0.578   4.168   0.806  0.3586 -0.0745 -0.2651
 6286SOL    HW224916   0.670   4.144   0.801 -0.2012 -2.4474 -0.5491
 6286SOL    HW324917   0.573   4.229   0.879  2.1064 -0.1085 -0.0684
 6286SOL    MW424918   0.589   4.173   0.815  0.3544 -0.1506 -0.2196
 6287SOL     OW24919   3.745   3.079   2.691 -0.5628  0.0289 -1.1323
 6287SOL    HW224920   3.758   3.015   2.620  1.2103 -1.3803  0.3338
 6287SOL    HW324921   3.654   3.067   2.718 -0.2371 -2.0709 -0.7981
 6287SOL    MW424922   3.735   3.069   2.685  0.5286  0.3479  0.3290
 6288SOL     OW24923   4.572   1.600   4.344 -0.0590 -0.2029 -0.2127
 6288SOL    HW224924   4.520   1.611   4.424 -0.0868  0.7050 -0.3417
 6288SOL    HW324925   4.566   1.684   4.300 -1.2670 -1.1292 -1.9241
 6288SOL    MW424926   4.565   1.612   4.349 -0.1952 -0.0995 -0.4859
 6289SOL     OW24927   3.028   1.582   0.268 -0.1628  0.5960  0.1801
 6289SOL    HW224928   2.943   1.560   0.231  0.3734 -0.3180 -0.5747
 6289SOL    HW324929   3.009   1.644   0.338 -1.2692  2.0000 -1.2956
 6289SOL    MW424930   3.015   1.587   0.272  0.9330  0.0858 -0.7475
 6290SOL     OW24931   2.970   0.078   3.369  0.3376  0.2941 -0.3557
 6290SOL    HW224932   2.908   0.144   3.337  1.2362  2.5357  2.0807
 6290SOL    HW324933   3.056   0.116   3.352  0.8586  0.2433  1.8284
 6290SOL    MW424934   2.973   0.092   3.363  0.5936 -0.1026 -0.4041
 6291SOL     OW24935   1.917   3.231   1.765  0.0773  0.0555  0.6765
 6291SOL    HW224936   1.909   3.284   1.845 -1.6606 -0.5687  0.9531
 6291SOL    HW324937   1.867   3.151   1.784  1.0870 -0.8801 -0.4183
 6291SOL    MW424938   1.910   3.227   1.778 -0.2556  0.1740  0.0782
 6292SOL     OW24939   0.540   5.461   4.208  0.4992 -0.0010 -0.3443
 6292SOL    HW224940   0.461   5.408   4.203  0.7747 -0.4607  0.0849
 6292SOL    HW324941   0.611   5.399   4.188  1.0186 -0.3176  2.1574
 6292SOL    MW424942   0.539   5.446   4.205 -0.3442  0.2503 -0.1773
 6293SOL     OW24943   3.133   0.248   5.642  0.2454  0.4301 -0.0739
 6293SOL    HW224944   3.056   0.297   5.672  0.3563  0.1401  0.7032
 6293SOL    HW324945   3.143   0.273   5.550  0.8417  2.5945  0.5111
 6293SOL    MW424946   3.124   0.258   5.634  0.0255  0.1557 -0.3713
 6294SOL     OW24947   3.601   4.067   1.258 -0.3139  0.2584 -0.0452
 6294SOL    HW224948   3.513   4.054   1.294  0.6720 -0.5055  2.3031
 6294SOL    HW324949   3.615   3.992   1.202 -1.0706  0.2648 -0.2561
 6294SOL    MW424950   3.591   4.056   1.256 -0.1683 -0.1058  0.4227
 6295SOL     OW24951   0.407   0.587   2.468 -0.6755  0.2042 -0.2827
 6295SOL    HW224952   0.352   0.564   2.393 -0.8927  0.1365 -0.1055
 6295SOL    HW324953   0.424   0.680   2.458  0.0810  0.0009 -0.9243
 6295SOL    MW424954   0.402   0.596   2.457  0.0253  0.1165  0.0854
 6296SOL     OW24955   4.751   2.714   1.223  0.2131 -0.4903  0.1807
 6296SOL    HW224956   4.786   2.645   1.167 -0.0206 -0.2292 -0.2897
 6296SOL    HW324957   4.786   2.694   1.310  1.1115 -0.5225 -0.1840
 6296SOL    MW424958   4.760   2.702   1.227  0.1445  0.3326 -0.0684
 6297SOL     OW24959   4.710   2.620   6.362  0.1841  0.1648 -0.6177
 6297SOL    HW224960   4.623   2.608   6.400 -0.3837  0.5614 -1.7495
 6297SOL    HW324961   4.732   2.534   6.325  0.2473  0.0904 -0.4135
 6297SOL    MW424962   4.701   2.607   6.362 -0.5755  0.6893  0.8242
 6298SOL     OW24963   2.847   4.934   5.567  0.3773  0.2026  0.1622
 6298SOL    HW224964   2.758   4.960   5.547  0.0682 -0.5735  0.5034
 6298SOL    HW324965   2.880   5.003   5.624  0.4517  1.1748 -0.9971
 6298SOL    MW424966   2.840   4.946   5.572  0.5273 -1.1894 -0.1970
 6299SOL     OW24967   3.409   3.150   4.256  0.3239  0.2225  0.3302
 6299SOL    HW224968   3.418   3.068   4.306 -1.0113  0.3065  0.7530
 6299SOL    HW324969   3.358   3.125   4.178 -0.3807  0.6936  0.6262
 6299SOL    MW424970   3.403   3.136   4.252  0.1382 -0.1409  0.6300
 6300SOL     OW24971   5.548   5.176   2.650 -0.0620 -0.0677  0.1110
 6300SOL    HW224972   5.464   5.130   2.647 -0.1203  0.0823 -1.7653
 6300SOL    HW324973   5.592   5.151   2.569 -0.2082  3.3052 -1.1661
 6300SOL    MW424974   5.542   5.167   2.639  0.6330  0.4020 -0.0783
 6301SOL     OW24975   4.487   0.970   2.648  0.0584 -0.1374 -1.0210
 6301SOL    HW224976   4.564   1.000   2.696  0.4148 -0.1741 -1.5691
 6301SOL    HW324977   4.487   1.021   2.567 -1.5672  1.2573 -0.2110
 6301SOL    MW424978   4.497   0.980   2.644  0.0770  0.1149 -0.3988
 6302SOL     OW24979   0.476   4.570   1.797  0.3001 -0.7375  0.4531
 6302SOL    HW224980   0.553   4.514   1.789  0.5771 -0.3374  0.2578
 6302SOL    HW324981   0.433   4.541   1.877  0.5311 -1.1148  0.4430
 6302SOL    MW424982   0.481   4.559   1.806  0.1052  0.9426 -0.0044
 6303SOL     OW24983   0.574   3.646   0.496 -0.2971 -0.0417 -0.1006
 6303SOL    HW224984   0.533   3.732   0.505  0.0200  0.2299 -1.0946
 6303SOL    HW324985   0.586   3.635   0.402 -1.3763 -1.6814 -0.0934
 6303SOL    MW424986   0.570   3.656   0.485  0.0629  0.1329 -0.4193
 6304SOL     OW24987   2.857   1.404   1.336 -0.5606 -0.0662  0.1049
 6304SOL    HW224988   2.823   1.383   1.423  0.1395  0.6738  0.5740
 6304SOL    HW324989   2.826   1.493   1.319 -1.1888 -0.4185 -0.6711
 6304SOL    MW424990   2.848   1.413   1.345  0.3473  0.4624  0.2415
 6305SOL     OW24991   0.375   2.904   4.488 -0.1621  0.8659  0.1417
 6305SOL    HW224992   0.430   2.887   4.563  0.5136 -0.9685 -0.7278
 6305SOL    HW324993   0.328   2.822   4.472  0.4562  0.8658 -2.0151
 6305SOL    MW424994   0.376   2.891   4.496 -0.5549 -0.2722 -0.3078
 6306SOL     OW24995   4.993   5.319   4.822  0.4196  0.1007  0.3854
 6306SOL    HW224996   4.910   5.287   4.787 -0.7977  2.0426  1.3635
 6306SOL    HW324997   4.983   5.315   4.917  1.5371  0.1732  0.5296
 6306SOL    MW424998   4.981   5.314   4.830  0.1177  0.1960  0.2274
 6307SOL     OW24999   2.053   2.766   6.283  0.6249  0.4442  0.3086
 6307SOL    HW225000   2.071   2.710   6.358 -1.8184 -0.0150  0.6262
 6307SOL    HW325001   1.959   2.757   6.268  0.8413  1.4525 -2.0745
 6307SOL    MW425002   2.043   2.758   6.291  0.0805 -0.4401  0.2192
 6308SOL     OW25003   4.568   2.263   3.557 -0.3256 -0.2632 -0.4007
 6308SOL    HW225004   4.567   2.287   3.649  2.5703  0.3411 -0.4229
 6308SOL    HW325005   4.485   2.296   3.522 -1.6024 -0.7230  1.9760
 6308SOL    MW425006   4.557   2.271   3.564 -0.4408 -0.2988  0.7897
 6309SOL     OW25007   4.686   6.068   5.080 -0.3960  1.0108 -0.1518
 6309SOL    HW225008   4.708   6.042   5.169  0.4252 -1.7613 -1.0541
 6309SOL    HW325009   4.763   6.044   5.028 -1.0130  2.1623 -1.7056
 6309SOL    MW425010   4.699   6.062   5.085 -0.6005 -0.0913 -0.1907
 6310SOL     OW25011   0.130   6.206   1.036 -0.0141 -0.1556 -0.4851
 6310SOL    HW225012   0.133   6.280   1.096 -0.6968 -2.9165  3.3049
 6310SOL    HW325013   0.215   6.163   1.046 -0.9843 -1.9759  0.4905
 6310SOL    MW425014   0.141   6.210   1.045 -0.8693 -0.3610  0.1494
 6311SOL     OW25015   3.764   1.111   2.936  0.2173 -0.2647  0.1670
 6311SOL    HW225016   3.822   1.152   2.872  0.9252 -3.3878 -1.3893
 6311SOL    HW325017   3.683   1.162   2.931  0.5643  0.1952 -2.5710
 6311SOL    MW425018   3.761   1.123   2.927 -0.6601 -0.0129 -0.1110
 6312SOL     OW25019   5.324   1.747   5.464  0.2348 -0.1430 -0.1183
 6312SOL    HW225020   5.303   1.660   5.497  0.0001 -0.4630 -1.0921
 6312SOL    HW325021   5.406   1.735   5.415 -0.6260 -0.1478 -1.5987
 6312SOL    MW425022   5.332   1.734   5.462 -0.4905  0.4448 -0.2167
 6313SOL     OW25023   0.559   6.045   3.832 -0.4574  0.0360  0.0474
 6313SOL    HW225024   0.489   6.109   3.820 -0.4650  0.0236  0.0241
 6313SOL    HW325025   0.573   6.043   3.927  1.5101  2.1800 -0.1213
 6313SOL    MW425026   0.551   6.053   3.843  0.0020 -0.0898  0.0407
 6314SOL     OW25027   4.764   0.270   2.191 -0.3761 -0.0873  0.0396
 6314SOL    HW225028   4.815   0.296   2.114 -1.5774  0.8422 -0.4890
 6314SOL    HW325029   4.722   0.188   2.165  0.7495 -0.8081  0.4450
 6314SOL    MW425030   4.765   0.263   2.177 -0.2737 -0.6151  0.4461
 6315SOL     OW25031   1.009   1.426   3.623  0.1963  0.5928 -0.2388
 6315SOL    HW225032   1.056   1.349   3.654 -0.0472  0.6828  0.3913
 6315SOL    HW325033   1.076   1.483   3.585  0.5555  0.5753  0.3466
 6315SOL    MW425034   1.024   1.424   3.622 -0.4049  0.2533  0.2847
 6316SOL     OW25035   1.306   2.977   5.076  0.1118  0.2282  0.2213
 6316SOL    HW225036   1.267   2.973   5.163 -0.1561  0.6060  0.1226
 6316SOL    HW325037   1.325   3.070   5.063 -1.8878  0.5467 -0.9939
 6316SOL    MW425038   1.303   2.989   5.086  0.3385  0.2356  0.4440
 6317SOL     OW25039   5.882   4.614   1.235 -0.0563 -0.0256  0.1229
 6317SOL    HW225040   5.955   4.552   1.243 -0.8894 -1.0698 -0.0285
 6317SOL    HW325041   5.815   4.579   1.294 -1.2490 -0.3375 -1.3478
 6317SOL    MW425042   5.883   4.601   1.244  0.0628  0.2483 -0.1925
 6318SOL     OW25043   3.086   0.743   5.430 -0.0860  0.3154 -0.0682
 6318SOL    HW225044   3.078   0.814   5.366 -2.8787 -0.7261 -1.0492
 6318SOL    HW325045   3.117   0.786   5.510  0.2783  2.2509 -1.1707
 6318SOL    MW425046   3.089   0.758   5.432 -0.1200  0.4444  0.3433
 6319SOL     OW25047   0.127   0.662   1.810  1.0169  0.0737  0.0658
 6319SOL    HW225048   0.045   0.654   1.762  0.2731 -0.0587  1.2915
 6319SOL    HW325049   0.106   0.630   1.898  1.9970  1.3975  0.8214
 6319SOL    MW425050   0.113   0.657   1.816 -0.0597 -0.0153 -0.0033
 6320SOL     OW25051   5.742   0.174   4.827  0.4499  0.2899 -0.2236
 6320SOL    HW225052   5.787   0.131   4.899  0.3286  1.8329  0.8209
 6320SOL    HW325053   5.668   0.218   4.869 -1.3051 -1.0919 -1.7012
 6320SOL    MW425054   5.738   0.174   4.842  0.2388 -0.0358  0.1327
 6321SOL     OW25055   1.768   0.328   6.238 -0.5357  0.2713 -0.1971
 6321SOL    HW225056   1.762   0.286   6.152  0.9566  0.0610 -0.2175
 6321SOL    HW325057   1.852   0.300   6.273 -0.0602  2.2069  0.3474
 6321SOL    MW425058   1.778   0.319   6.232  0.0647 -0.1082  0.4244
 6322SOL     OW25059   1.022   6.045   3.954  0.0661 -0.4251 -0.2095
 6322SOL    HW225060   0.958   6.108   3.921  0.6251 -0.9147 -2.4159
 6322SOL    HW325061   1.106   6.089   3.942  0.3034 -0.6833  0.4726
 6322SOL    MW425062   1.025   6.059   3.948 -0.6003 -0.4944 -0.3000
 6323SOL     OW25063   5.592   3.066   5.702 -0.0778  0.0629  0.6071
 6323SOL    HW225064   5.547   3.017   5.770  0.7951 -0.0408  1.1292
 6323SOL    HW325065   5.677   3.022   5.693  0.0609  0.4562 -0.1075
 6323SOL    MW425066   5.598   3.054   5.709 -0.1470  0.2722  0.3861
 6324SOL     OW25067   1.148   1.562   0.381 -0.0922 -0.3588 -0.3836
 6324SOL    HW225068   1.209   1.629   0.412  1.9862 -2.7017  1.0254
 6324SOL    HW325069   1.157   1.564   0.285  1.6438 -0.0814 -0.2438
 6324SOL    MW425070   1.158   1.571   0.372 -0.1074  0.3347 -0.1762
 6325SOL     OW25071   3.264   5.494   4.295  0.1828 -0.5435 -0.3886
 6325SOL    HW225072   3.254   5.538   4.379  1.8769  0.7679 -0.7925
 6325SOL    HW325073   3.224   5.408   4.307  0.7366 -0.5522  1.8786
 6325SOL    MW425074   3.257   5.489   4.307  0.2252 -0.7292  0.1064
 6326SOL     OW25075   3.780   1.891   1.574  0.0145 -0.4576  0.3101
 6326SOL    HW225076   3.775   1.835   1.497  0.5260  1.4407 -1.1535
 6326SOL    HW325077   3.690   1.901   1.604 -0.1526 -1.4264  0.1509
 6326SOL    MW425078   3.768   1.885   1.568 -0.4591 -0.1305  0.0516
 6327SOL     OW25079   4.781   4.445   3.411 -0.0609 -0.2478 -0.4374
 6327SOL    HW225080   4.797   4.516   3.349 -0.1774 -1.1472 -1.5279
 6327SOL    HW325081   4.839   4.375   3.382  0.0632 -0.5990  0.6360
 6327SOL    MW425082   4.791   4.445   3.399  0.0330 -0.6694  0.4061
 6328SOL     OW25083   0.184   6.292   6.418 -0.1983 -0.2889  0.4437
 6328SOL    HW225084   0.257   6.252   6.465  0.1383 -1.0789 -0.7039
 6328SOL    HW325085   0.117   6.307   6.485  0.1830 -1.5635  1.1441
 6328SOL    MW425086   0.185   6.288   6.433 -0.0236  0.6601  0.1611
 6329SOL     OW25087   0.217   0.618   1.069 -0.2288 -0.0817 -0.3039
 6329SOL    HW225088   0.203   0.545   1.008 -1.4217  0.4887 -0.7518
 6329SOL    HW325089   0.267   0.581   1.141  0.8164 -0.8924 -1.4196
 6329SOL    MW425090   0.221   0.603   1.070  0.0315 -0.0727 -0.5728
 6330SOL     OW25091   0.321   2.528   3.102  0.2743 -0.6090  0.2482
 6330SOL    HW225092   0.414   2.539   3.086  0.2389  0.1794  0.5620
 6330SOL    HW325093   0.292   2.611   3.141 -0.5807 -0.7933  0.0419
 6330SOL    MW425094   0.329   2.540   3.105 -0.4875  0.7509  0.4209
 6331SOL     OW25095   2.217   2.325   3.929 -0.0150  0.1394 -0.6897
 6331SOL    HW225096   2.197   2.417   3.915 -0.1694  0.2570  0.2161
 6331SOL    HW325097   2.170   2.279   3.859 -0.2903  0.7150 -0.8861
 6331SOL    MW425098   2.208   2.331   3.918  0.2604 -0.0076  0.4728
 6332SOL     OW25099   4.992   3.893   2.743  0.4389  0.0025  0.6128
 6332SOL    HW225100   5.022   3.980   2.714 -0.3931 -0.2428 -1.0695
 6332SOL    HW325101   4.944   3.858   2.668 -0.8240 -1.1681  1.9227
 6332SOL    MW425102   4.990   3.900   2.729 -0.2077 -0.1494 -0.1754
 6333SOL     OW25103   3.679   1.752   2.200  0.1177 -0.0945 -0.1844
 6333SOL    HW225104   3.766   1.791   2.207  0.3174 -0.6812  0.7856
 6333SOL    HW325105   3.624   1.807   2.256  0.2714 -0.8181  0.6972
 6333SOL    MW425106   3.683   1.765   2.208 -0.4451 -0.1700  0.5056
 6334SOL     OW25107   1.040   2.002   2.313  0.0846  0.3748 -0.1938
 6334SOL    HW225108   1.115   2.001   2.373  0.0714 -0.1964 -0.1838
 6334SOL    HW325109   1.048   1.921   2.263  0.1094  0.8609 -0.9970
 6334SOL    MW425110   1.051   1.991   2.315  0.1209 -0.1847  0.2241
 6335SOL     OW25111   5.970   5.920   5.476  0.1675 -0.4226 -1.2059
 6335SOL    HW225112   5.896   5.861   5.492  0.7306 -0.8004  0.0579
 6335SOL    HW325113   5.929   6.006   5.463 -0.5102 -0.6865 -0.8635
 6335SOL    MW425114   5.955   5.924   5.476  0.1694 -0.1337 -0.6012
 6336SOL     OW25115   0.780   1.965   5.742 -0.0682  0.0963 -0.3449
 6336SOL    HW225116   0.704   2.011   5.778  0.1853  0.1053  0.1987
 6336SOL    HW325117   0.839   2.035   5.713  0.1348  0.1105  0.0947
 6336SOL    MW425118   0.778   1.981   5.743  0.7740 -0.0363  0.0074
 6337SOL     OW25119   5.747   4.482   0.357  0.4720  0.0167  0.2297
 6337SOL    HW225120   5.798   4.555   0.391 -1.1877  2.2035 -1.6360
 6337SOL    HW325121   5.808   4.434   0.301  1.4767  0.1762  1.1465
 6337SOL    MW425122   5.762   4.486   0.354 -0.0007 -0.1859 -0.2798
 6338SOL     OW25123   6.403   5.624   4.929 -0.6290  0.1995  0.1569
 6338SOL    HW225124   6.481   5.667   4.894 -0.4824 -0.7768 -0.7361
 6338SOL    HW325125   6.365   5.578   4.855 -0.4737 -1.7011  1.1944
 6338SOL    MW425126   6.408   5.624   4.915  0.0943  0.1791 -0.4414
 6339SOL     OW25127   4.492   5.316   3.248 -0.0656 -0.0180  0.0146
 6339SOL    HW225128   4.487   5.300   3.342 -1.2513  0.1452 -0.0053
 6339SOL    HW325129   4.556   5.387   3.240  0.0578 -0.0400  0.6996
 6339SOL    MW425130   4.500   5.323   3.260 -0.0254 -0.8171  0.7098
 6340SOL     OW25131   3.694   1.970   3.438 -0.8536 -0.3054 -0.6691
 6340SOL    HW225132   3.725   1.980   3.528  1.5519 -0.1637 -1.4328
 6340SOL    HW325133   3.692   2.059   3.403 -0.7063 -0.4534 -1.0669
 6340SOL    MW425134   3.698   1.983   3.445  0.4640  0.0749  0.7340
 6341SOL     OW25135   3.094   1.433   4.457 -0.1078 -0.2413 -0.1473
 6341SOL    HW225136   3.144   1.396   4.384 -1.8570 -0.4276 -1.3275
 6341SOL    HW325137   3.058   1.357   4.503 -0.3221 -0.0937 -0.0657
 6341SOL    MW425138   3.096   1.418   4.453  0.3738  0.2198 -0.6071
 6342SOL     OW25139   4.886   0.653   5.450 -0.2329 -0.3153  0.0303
 6342SOL    HW225140   4.933   0.736   5.443 -0.4402 -0.3565 -3.5890
 6342SOL    HW325141   4.938   0.591   5.398 -2.2111 -1.3388 -0.8305
 6342SOL    MW425142   4.899   0.656   5.442 -0.2132 -0.1361 -0.2520
 6343SOL     OW25143   3.077   5.088   0.597  0.2729 -0.1964 -0.2761
 6343SOL    HW225144   3.012   5.131   0.652  2.3331  1.9794  0.5960
 6343SOL    HW325145   3.150   5.069   0.655  0.2373 -3.3298 -1.0571
 6343SOL    MW425146   3.078   5.091   0.612 -0.3124  0.2478 -0.5664
 6344SOL     OW25147   5.652   1.702   1.657  0.2742  0.5266 -0.2578
 6344SOL    HW225148   5.575   1.671   1.703 -0.2345  0.0357 -1.3882
 6344SOL    HW325149   5.621   1.720   1.568  1.5928 -0.3957 -0.9436
 6344SOL    MW425150   5.638   1.701   1.651 -0.0615  0.9380  0.2397
 6345SOL     OW25151   3.698   5.365   1.743  0.0610 -0.5420 -0.5686
 6345SOL    HW225152   3.750   5.442   1.719  1.0052 -1.9619 -3.3987
 6345SOL    HW325153   3.762   5.297   1.762 -0.7364 -1.5433 -1.3511
 6345SOL    MW425154   3.713   5.366   1.742 -0.3401  0.6270  0.2576
 6346SOL     OW25155   1.932   0.365   2.651 -0.0373 -0.2138  0.0341
 6346SOL    HW225156   1.911   0.458   2.641 -1.8016 -0.7839 -2.5004
 6346SOL    HW325157   1.891   0.339   2.733 -0.0403  1.0841  0.4616
 6346SOL    MW425158   1.924   0.374   2.660  0.8061 -0.1439  0.6299
 6347SOL     OW25159   3.264   0.545   1.632  0.2785  0.0428  0.1389
 6347SOL    HW225160   3.218   0.530   1.549 -0.7539 -0.1026  0.7186
 6347SOL    HW325161   3.350   0.577   1.606 -0.9997  2.9334 -0.9689
 6347SOL    MW425162   3.269   0.547   1.618  0.0987  0.0498  0.0937
 6348SOL     OW25163   2.099   4.676   0.053  0.4583  0.2166  0.0414
 6348SOL    HW225164   2.189   4.691   0.025  0.8962  1.1080  1.8070
 6348SOL    HW325165   2.089   4.729   0.132 -1.0875 -1.2051  0.8554
 6348SOL    MW425166   2.110   4.685   0.060 -0.3176 -0.2474  0.2893
 6349SOL     OW25167   0.881   4.608   3.949  0.6050  0.1446 -0.5198
 6349SOL    HW225168   0.941   4.602   4.024 -1.3040 -0.7743  1.0430
 6349SOL    HW325169   0.842   4.695   3.955  0.3575  0.0246 -0.3440
 6349SOL    MW425170   0.884   4.618   3.960 -0.0898  0.7741  0.2808
 6350SOL     OW25171   4.178   0.614   2.073  0.0950  0.0385  0.0017
 6350SOL    HW225172   4.190   0.709   2.072  1.5276 -0.1086 -1.0589
 6350SOL    HW325173   4.161   0.593   2.164  0.1418  1.2753  0.3175
 6350SOL    MW425174   4.178   0.624   2.085 -0.4718 -0.7988 -0.2377
 6351SOL     OW25175   1.189   3.044   0.211  0.2295  0.1650 -0.0282
 6351SOL    HW225176   1.169   3.095   0.133  0.3355  0.3707  0.0781
 6351SOL    HW325177   1.277   3.010   0.195 -0.7106 -1.9401 -1.1369
 6351SOL    MW425178   1.198   3.046   0.199 -0.0159  0.1965 -0.4180
 6352SOL     OW25179   5.431   2.614   2.489 -0.4501  0.5769  0.3270
 6352SOL    HW225180   5.439   2.569   2.573  0.7183 -0.6757 -0.4192
 6352SOL    HW325181   5.338   2.639   2.484 -0.7804 -0.3279  1.4812
 6352SOL    MW425182   5.420   2.612   2.499 -0.0919  0.1937 -0.4997
 6353SOL     OW25183   3.312   6.331   3.197  0.0841 -0.4790  0.0238
 6353SOL    HW225184   3.217   6.320   3.205 -0.4602  3.1380  0.4303
 6353SOL    HW325185   3.337   6.383   3.273  2.0453  0.2048 -1.0126
 6353SOL    MW425186   3.303   6.336   3.208  0.1680  0.0726 -0.0035
 6354SOL     OW25187   5.528   2.384   2.342 -0.4207  0.4350  0.2325
 6354SOL    HW225188   5.621   2.391   2.318 -0.1290 -1.3671  0.6972
 6354SOL    HW325189   5.515   2.456   2.405  0.2500  1.6078 -0.9070
 6354SOL    MW425190   5.539   2.395   2.347  0.1489  0.2105  0.7573
 6355SOL     OW25191   6.250   3.224   3.295 -0.6683  0.4498 -0.2445
 6355SOL    HW225192   6.319   3.214   3.360 -1.2519 -1.2145  0.1921
 6355SOL    HW325193   6.211   3.309   3.313  0.2884  0.7507  0.4704
 6355SOL    MW425194   6.254   3.234   3.306  0.1444  0.0995  0.1138
 6356SOL     OW25195   6.237   3.011   6.115  0.0022 -0.3508 -0.5435
 6356SOL    HW225196   6.178   2.970   6.178 -0.2380 -1.4531 -1.4507
 6356SOL    HW325197   6.183   3.077   6.072 -0.3819 -0.8799 -0.8880
 6356SOL    MW425198   6.222   3.014   6.118  0.1900  0.0255  0.2125
 6357SOL     OW25199   3.856   1.467   5.391  0.6476 -0.2535 -0.8351
 6357SOL    HW225200   3.815   1.412   5.458  2.8783  0.0969  0.9330
 6357SOL    HW325201   3.789   1.531   5.368 -0.8842 -1.6846 -0.5117
 6357SOL    MW425202   3.842   1.468   5.397 -0.4887  0.2821 -0.2336
 6358SOL     OW25203   6.374   5.181   2.937  0.6438  0.2757 -0.3252
 6358SOL    HW225204   6.281   5.165   2.954  0.8036  0.8921  1.2289
 6358SOL    HW325205   6.402   5.104   2.888 -0.3985 -0.5455  0.3163
 6358SOL    MW425206   6.365   5.168   2.933 -0.1956 -0.2035  0.2573
 6359SOL     OW25207   2.596   3.701   0.421 -0.4295  0.8312  0.1753
 6359SOL    HW225208   2.599   3.628   0.359 -1.9941  1.8597 -1.2090
 6359SOL    HW325209   2.644   3.771   0.376  0.2034  0.9636  1.0483
 6359SOL    MW425210   2.603   3.701   0.407  0.6895  0.3446 -0.0116
 6360SOL     OW25211   5.345   3.435   1.093 -0.3445 -0.4787 -0.1303
 6360SOL    HW225212   5.384   3.505   1.146 -1.7202  1.0148 -0.9868
 6360SOL    HW325213   5.378   3.450   1.005 -0.9484 -0.6795 -0.3958
 6360SOL    MW425214   5.354   3.446   1.089  0.0346 -0.2359 -0.1799
 6361SOL     OW25215   4.367   2.546   4.886  0.1992  0.5626  0.5380
 6361SOL    HW225216   4.369   2.555   4.982 -0.6301 -1.0437  0.7434
 6361SOL    HW325217   4.280   2.577   4.861  0.4085  0.9620  0.3041
 6361SOL    MW425218   4.356   2.551   4.896  0.1400 -0.2007  0.2857
 6362SOL     OW25219   6.057   6.295   1.321 -0.2165 -0.0238  0.0112
 6362SOL    HW225220   6.006   6.227   1.366 -0.2387  0.4502  0.7229
 6362SOL    HW325221   6.075   6.360   1.389  0.1240  0.5030 -0.5732
 6362SOL    MW425222   6.052   6.294   1.336 -0.1017  0.5516  0.5081
 6363SOL     OW25223   5.707   6.053   2.588  0.3640  0.3291  1.1002
 6363SOL    HW225224   5.709   6.039   2.682  1.0376  0.0574  1.0503
 6363SOL    HW325225   5.671   5.973   2.552  1.1557 -0.0099  1.0499
 6363SOL    MW425226   5.703   6.041   2.596  0.0598  0.7246  0.5233
 6364SOL     OW25227   4.766   4.687   5.849  0.0674 -0.0790 -0.3013
 6364SOL    HW225228   4.828   4.741   5.899 -0.1501 -1.1361  1.1858
 6364SOL    HW325229   4.791   4.699   5.758  1.1224  1.1579  0.1269
 6364SOL    MW425230   4.778   4.696   5.844  0.2603  0.9488 -0.6874
 6365SOL     OW25231   5.913   0.169   2.380 -0.4034 -0.2196  0.5910
 6365SOL    HW225232   5.925   0.094   2.437  0.3584  1.0501  2.1917
 6365SOL    HW325233   5.996   0.217   2.385 -0.4433  0.1418 -1.3233
 6365SOL    MW425234   5.926   0.166   2.388  0.0293  0.4859  0.1133
 6366SOL     OW25235   3.096   3.646   2.329  1.0656 -0.0176 -0.3955
 6366SOL    HW225236   3.101   3.551   2.336  0.9337  0.0145  0.2035
 6366SOL    HW325237   3.145   3.678   2.405 -2.5789  0.3479  2.0816
 6366SOL    MW425238   3.103   3.638   2.340  0.5420  0.2480  0.0723
 6367SOL     OW25239   0.087   4.594   3.425 -0.1739 -0.6745 -0.1827
 6367SOL    HW225240   0.159   4.640   3.382 -1.1980 -0.5999 -1.9308
 6367SOL    HW325241   0.065   4.649   3.501  0.2486  0.4056 -0.8207
 6367SOL    MW425242   0.093   4.607   3.429  0.0971  0.0564 -0.3808
 6368SOL     OW25243   1.666   4.080   2.523  0.3697 -0.8660  0.6377
 6368SOL    HW225244   1.717   3.999   2.512  0.2629 -0.7584 -0.9686
 6368SOL    HW325245   1.576   4.051   2.533  0.3137 -0.9690 -0.0685
 6368SOL    MW425246   1.661   4.065   2.523  0.6519  1.1262  0.4429
 6369SOL     OW25247   0.573   2.162   1.940  0.6327  0.3470 -0.4301
 6369SOL    HW225248   0.506   2.227   1.923  2.2485  1.7407 -1.8545
 6369SOL    HW325249   0.622   2.155   1.858  3.5916  1.0536  1.1334
 6369SOL    MW425250   0.571   2.169   1.927  0.2304  0.6403  1.1463
 6370SOL     OW25251   3.769   6.123   3.756 -0.4850  0.0907 -0.0181
 6370SOL    HW225252   3.784   6.182   3.829  0.0758 -0.0339 -0.0310
 6370SOL    HW325253   3.730   6.045   3.796 -0.5598  0.1826  0.0900
 6370SOL    MW425254   3.765   6.120   3.771  0.1687 -0.7682 -0.3094
 6371SOL     OW25255   0.595   0.052   1.989  0.1493  0.1316 -0.7877
 6371SOL    HW225256   0.576  -0.029   1.942 -1.0026 -0.1605  0.1050
 6371SOL    HW325257   0.581   0.029   2.081  0.9816  1.0354 -0.4261
 6371SOL    MW425258   0.590   0.038   1.995 -0.0365  0.2498 -0.3394
 6372SOL     OW25259   5.742   1.604   0.323  0.2873 -0.5862 -0.0246
 6372SOL    HW225260   5.652   1.636   0.334  1.3417  2.2187  1.1352
 6372SOL    HW325261   5.751   1.534   0.388 -1.1634 -1.2597 -0.5004
 6372SOL    MW425262   5.731   1.599   0.333 -0.2188 -0.4704 -0.1233
 6373SOL     OW25263   2.772   3.570   0.978 -0.2063  0.2438  0.0692
 6373SOL    HW225264   2.857   3.595   0.943 -1.2418  1.8093 -1.5382
 6373SOL    HW325265   2.791   3.518   1.055  2.1947 -0.1198 -0.7110
 6373SOL    MW425266   2.785   3.566   0.984  0.0211  0.0858 -0.2344
 6374SOL     OW25267   4.602   3.331   2.363  0.4526  0.5297 -0.0359
 6374SOL    HW225268   4.545   3.388   2.416 -2.1091 -0.4721 -1.5342
 6374SOL    HW325269   4.600   3.247   2.408  1.9532  0.8312  0.6494
 6374SOL    MW425270   4.594   3.328   2.376 -0.3375  0.5966  0.0458
 6375SOL     OW25271   3.818   2.959   4.313  0.0798 -0.3919 -0.9260
 6375SOL    HW225272   3.758   2.896   4.273  2.2769 -2.1512 -1.6235
 6375SOL    HW325273   3.836   2.922   4.400 -0.1025  0.3137 -0.5831
 6375SOL    MW425274   3.812   2.945   4.319  0.0550 -0.2525  0.0337
 6376SOL     OW25275   0.581   2.942   4.311 -0.5632  0.4443  0.3239
 6376SOL    HW225276   0.658   2.936   4.367 -0.4654  0.4379  0.1868
 6376SOL    HW325277   0.507   2.943   4.373 -0.4217  1.2359  0.4861
 6376SOL    MW425278   0.581   2.941   4.327 -0.8424  0.2777  0.2149
 6377SOL     OW25279   1.510   1.541   5.241 -0.3194  0.5050 -0.1326
 6377SOL    HW225280   1.505   1.594   5.162 -1.1493  1.6916  0.6812
 6377SOL    HW325281   1.443   1.474   5.230 -0.6824  0.8923 -0.2804
 6377SOL    MW425282   1.501   1.539   5.229  1.1945  0.3349  0.6174
 6378SOL     OW25283   4.772   0.764   0.323  0.0533 -0.1169  0.2171
 6378SOL    HW225284   4.738   0.674   0.325  0.4007 -0.3337 -1.8286
 6378SOL    HW325285   4.733   0.802   0.245  3.5783 -0.0268 -1.6840
 6378SOL    MW425286   4.762   0.757   0.313 -0.0517  0.1777  0.2333
 6379SOL     OW25287   0.497   5.342   0.706  0.4952 -0.3045  0.3721
 6379SOL    HW225288   0.473   5.253   0.732 -1.8708  0.0244 -0.5382
 6379SOL    HW325289   0.428   5.397   0.742  1.9871  1.2383  1.0313
 6379SOL    MW425290   0.485   5.338   0.714 -0.4072 -0.3470 -0.8704
 6380SOL     OW25291   5.663   1.531   5.756 -0.1371 -0.1767  0.0498
 6380SOL    HW225292   5.656   1.625   5.737 -0.7499 -0.0443  0.8415
 6380SOL    HW325293   5.618   1.521   5.840  0.7031 -1.0403  0.4113
 6380SOL    MW425294   5.656   1.542   5.765  0.3426  0.4116 -0.4812
 6381SOL     OW25295   5.119   4.675   5.435  0.2085 -0.0617  0.0938
 6381SOL    HW225296   5.081   4.656   5.349 -1.0963 -1.3989  0.9270
 6381SOL    HW325297   5.044   4.686   5.493  1.0775 -0.2262  1.2869
 6381SOL    MW425298   5.104   4.674   5.431 -0.1588 -0.3503 -0.1786
 6382SOL     OW25299   6.012   6.179   4.854 -0.1580 -0.3281 -0.0161
 6382SOL    HW225300   5.933   6.132   4.882 -1.8910  1.7565 -1.1793
 6382SOL    HW325301   6.010   6.261   4.903  0.2002  0.6032 -1.5102
 6382SOL    MW425302   6.002   6.183   4.864 -0.5485 -0.5559 -0.2649
 6383SOL     OW25303   1.257   2.023   1.168  0.0873 -0.2876  0.3192
 6383SOL    HW225304   1.330   1.964   1.188 -0.1563 -1.4111 -1.8057
 6383SOL    HW325305   1.182   1.965   1.154 -0.9384  0.7680  1.2097
 6383SOL    MW425306   1.257   2.008   1.169 -0.4868  0.1126 -0.2891
 6384SOL     OW25307   1.647   1.296   2.972 -0.0103 -0.2800  0.0387
 6384SOL    HW225308   1.713   1.334   3.030  0.1359 -1.7509  0.9085
 6384SOL    HW325309   1.676   1.205   2.959 -1.6980 -0.8949  0.2443
 6384SOL    MW425310   1.660   1.289   2.978 -0.9349  0.2627  0.0412
 6385SOL     OW25311   0.101   0.245   5.441  0.1143  0.2449  0.3157
 6385SOL    HW225312   0.187   0.216   5.470 -0.6113 -0.6043  1.7397
 6385SOL    HW325313   0.083   0.322   5.495  1.2658  2.4311 -2.1868
 6385SOL    MW425314   0.110   0.252   5.452 -0.1297  0.3373 -0.1291
 6386SOL     OW25315   5.957   2.037   5.442  0.0350  0.1709 -0.1316
 6386SOL    HW225316   6.012   2.095   5.388  0.3490 -0.3025 -0.3284
 6386SOL    HW325317   5.894   2.000   5.380  1.4894 -1.7344 -0.5712
 6386SOL    MW425318   5.956   2.040   5.427 -0.0038 -0.2315  0.2571
 6387SOL     OW25319   0.660   4.899   1.055 -0.2422 -0.4088  0.2857
 6387SOL    HW225320   0.620   4.984   1.068 -1.7577 -0.9676 -0.4873
 6387SOL    HW325321   0.662   4.859   1.142  1.3157  0.7164  0.8220
 6387SOL    MW425322   0.655   4.905   1.068 -0.3808  0.8554 -0.1985
 6388SOL     OW25323   2.572   1.527   5.320  0.3402 -0.1746 -0.7041
 6388SOL    HW225324   2.582   1.545   5.414 -0.8524 -0.5635 -0.4819
 6388SOL    HW325325   2.650   1.565   5.280  1.0018 -0.2341  0.4753
 6388SOL    MW425326   2.584   1.534   5.327  0.2970  0.3265 -0.2419
 6389SOL     OW25327   2.409   2.582   0.960  0.3177  0.1564  0.0386
 6389SOL    HW225328   2.433   2.621   1.044 -0.3389 -0.5011  0.5477
 6389SOL    HW325329   2.465   2.504   0.954  0.5228  0.3251 -0.2433
 6389SOL    MW425330   2.420   2.577   0.971  0.3716  0.0061 -0.1873
 6390SOL     OW25331   6.406   4.713   4.715 -0.0387  0.1935 -0.3319
 6390SOL    HW225332   6.441   4.656   4.783 -1.1593 -0.1254  0.0021
 6390SOL    HW325333   6.426   4.802   4.745  0.7856  0.0112 -0.3329
 6390SOL    MW425334   6.413   4.717   4.728  0.1904 -0.4093  0.6274
 6391SOL     OW25335   2.012   0.096   0.468 -0.2981 -0.3342 -0.6005
 6391SOL    HW225336   2.069   0.020   0.478  0.8357  0.4852 -0.5991
 6391SOL    HW325337   2.010   0.113   0.374 -0.8834 -0.5989 -0.6416
 6391SOL    MW425338   2.019   0.089   0.457 -0.0294 -0.1623  0.8917
 6392SOL     OW25339   4.977   4.469   5.311 -0.5911 -0.3335  0.2190
 6392SOL    HW225340   4.897   4.522   5.312 -1.2263 -1.2804  0.8377
 6392SOL    HW325341   4.986   4.438   5.401  0.3427 -0.4420  0.0922
 6392SOL    MW425342   4.967   4.472   5.323 -0.4544 -0.3670 -0.0065
 6393SOL     OW25343   4.317   1.733   5.786 -0.2747 -0.4336 -0.3948
 6393SOL    HW225344   4.257   1.782   5.729 -0.4706 -0.8935 -0.5831
 6393SOL    HW325345   4.266   1.714   5.865 -0.9607 -2.3413 -1.2541
 6393SOL    MW425346   4.302   1.737   5.789  0.1978 -0.8679 -0.7595
 6394SOL     OW25347   0.949   2.501   2.373 -0.6803 -0.5752 -0.1920
 6394SOL    HW225348   0.937   2.511   2.279 -1.6236 -1.8847 -0.2473
 6394SOL    HW325349   1.012   2.568   2.397  1.6082 -1.8593 -2.1972
 6394SOL    MW425350   0.955   2.511   2.364  0.4708  0.2717  0.0835
 6395SOL     OW25351   1.081   1.568   3.348 -0.0984 -0.0287  0.2291
 6395SOL    HW225352   1.167   1.556   3.308  0.4119  2.3308  0.4684
 6395SOL    HW325353   1.026   1.499   3.309  1.8453 -1.5438  0.0345
 6395SOL    MW425354   1.085   1.557   3.338  0.1017 -0.2790  0.9925
 6396SOL     OW25355   1.810   4.227   3.749  0.3495 -0.3602 -0.0284
 6396SOL    HW225356   1.887   4.173   3.768 -0.2260 -0.3770  2.7022
 6396SOL    HW325357   1.752   4.169   3.700  1.0312 -1.2059  0.1319
 6396SOL    MW425358   1.813   4.212   3.745  0.4735 -0.8021  0.1202
 6397SOL     OW25359   3.249   1.558   1.782 -0.0528  0.2758  0.0392
 6397SOL    HW225360   3.242   1.515   1.867 -0.3936  1.3091  0.5463
 6397SOL    HW325361   3.343   1.572   1.770  0.1341 -1.2208 -0.4657
 6397SOL    MW425362   3.261   1.554   1.792  0.2447 -0.4151  0.3434
 6398SOL     OW25363   2.117   4.404   4.407 -0.2559  0.2942  0.2021
 6398SOL    HW225364   2.160   4.474   4.457  1.4403 -0.4218 -0.1693
 6398SOL    HW325365   2.184   4.335   4.401 -1.5798 -0.9975 -0.2061
 6398SOL    MW425366   2.132   4.404   4.413  0.2350 -0.3563 -0.0399
 6399SOL     OW25367   0.345   0.427   3.490 -0.4898  0.0216  0.3633
 6399SOL    HW225368   0.406   0.395   3.424  1.1608 -0.6429  2.1192
 6399SOL    HW325369   0.367   0.520   3.500 -1.8294  0.5339 -1.1028
 6399SOL    MW425370   0.356   0.435   3.483  0.3359  0.4213  0.0213
 6400SOL     OW25371   0.324   1.476   5.942 -0.2579 -0.3397 -0.3639
 6400SOL    HW225372   0.308   1.402   5.883 -0.2193 -0.7405  0.1252
 6400SOL    HW325373   0.350   1.436   6.025  1.1848  0.2572 -0.5037
 6400SOL    MW425374   0.325   1.461   5.945 -0.5567 -0.3102  0.2043
 6401SOL     OW25375   6.259   3.711   6.024 -0.1935 -0.1417  0.1760
 6401SOL    HW225376   6.165   3.722   6.036  0.3624  3.5630  3.4141
 6401SOL    HW325377   6.278   3.625   6.062 -2.0621  0.0946  1.8458
 6401SOL    MW425378   6.249   3.701   6.031  0.2497 -0.1254  0.1576
 6402SOL     OW25379   5.128   5.276   5.781 -0.0138  0.2937 -0.0649
 6402SOL    HW225380   5.094   5.187   5.790 -0.3640  0.4274 -0.0431
 6402SOL    HW325381   5.157   5.282   5.690 -0.7861  0.4317 -0.3064
 6402SOL    MW425382   5.128   5.265   5.770 -0.0692  0.2354  0.5372
 6403SOL     OW25383   5.574   3.731   2.448  0.0497  0.4654 -0.0698
 6403SOL    HW225384   5.612   3.694   2.368 -0.7684  3.0632 -1.7831
 6403SOL    HW325385   5.481   3.706   2.443  0.0718  0.2990  0.3108
 6403SOL    MW425386   5.567   3.723   2.437 -0.1392  0.7224 -0.3185
 6404SOL     OW25387   6.131   2.326   2.806  0.7168 -0.3554 -0.0740
 6404SOL    HW225388   6.129   2.357   2.897  1.0950  0.4210 -0.3319
 6404SOL    HW325389   6.219   2.290   2.794  1.0818  0.6713 -0.5079
 6404SOL    MW425390   6.142   2.325   2.817  0.2377 -0.4476  0.0519
 6405SOL     OW25391   2.864   3.226   2.133  0.5377 -0.8145 -0.6086
 6405SOL    HW225392   2.826   3.272   2.058  1.4907 -0.2318 -0.7370
 6405SOL    HW325393   2.789   3.183   2.174 -0.1788 -0.1492 -1.1917
 6405SOL    MW425394   2.849   3.226   2.128 -0.4145  0.1724 -0.0894
 6406SOL     OW25395   4.335   3.031   2.580 -0.5660  0.2933 -0.0985
 6406SOL    HW225396   4.331   2.942   2.613  0.6256  0.8552  1.7284
 6406SOL    HW325397   4.264   3.077   2.624 -0.4350  0.5267 -0.1276
 6406SOL    MW425398   4.325   3.026   2.590 -0.2846 -0.1358 -0.1834
 6407SOL     OW25399   2.471   1.932   0.025 -0.2829  0.4458  0.4038
 6407SOL    HW225400   2.495   1.847  -0.011 -0.5755  0.7663 -0.5712
 6407SOL    HW325401   2.535   1.993  -0.011 -0.9236  0.8639 -0.0574
 6407SOL    MW425402   2.482   1.929   0.016 -0.0215  0.6444  0.2687
 6408SOL     OW25403   2.927   1.108   3.918 -0.2355  0.3375  0.4192
 6408SOL    HW225404   2.992   1.178   3.916 -1.1947  1.2413  0.0468
 6408SOL    HW325405   2.865   1.130   3.849  0.6956 -2.1762 -1.3831
 6408SOL    MW425406   2.927   1.120   3.909 -0.1061  0.5003 -0.3118
 6409SOL     OW25407   1.287   0.337   0.732  0.1773 -0.4017 -1.0398
 6409SOL    HW225408   1.302   0.430   0.748 -0.1121 -0.1720 -2.0631
 6409SOL    HW325409   1.331   0.293   0.805 -2.2724  0.6288  1.2291
 6409SOL    MW425410   1.295   0.343   0.744 -0.1924  0.4004 -0.7064
 6410SOL     OW25411   2.651   4.920   4.516  0.0716  0.1424 -0.5615
 6410SOL    HW225412   2.603   4.998   4.545  1.8498  1.0662  0.0511
 6410SOL    HW325413   2.635   4.855   4.584  0.0674  0.6024 -0.1155
 6410SOL    MW425414   2.643   4.922   4.529  0.1294  0.0917  0.9637
 6411SOL     OW25415   0.877   1.550   0.967  0.3996  0.3192  0.4165
 6411SOL    HW225416   0.924   1.599   1.035  0.4398  0.9440 -0.0468
 6411SOL    HW325417   0.933   1.559   0.889 -0.4656  1.0615 -0.1411
 6411SOL    MW425418   0.891   1.558   0.965 -0.0951 -0.3687 -0.6183
 6412SOL     OW25419   3.870   0.979   0.501 -0.1658 -0.2184  0.5701
 6412SOL    HW225420   3.892   1.012   0.587 -0.2339  1.1528  0.0800
 6412SOL    HW325421   3.785   1.019   0.481 -0.1846 -0.5781 -0.1008
 6412SOL    MW425422   3.861   0.988   0.510 -0.0675  0.5700 -0.6144
 6413SOL     OW25423   1.127   2.368   3.844 -0.1272  0.6966  0.7143
 6413SOL    HW225424   1.041   2.399   3.873 -0.4045  0.8506 -0.2276
 6413SOL    HW325425   1.157   2.436   3.783 -0.8786 -0.9308 -1.6476
 6413SOL    MW425426   1.119   2.381   3.840 -0.0707 -0.0105 -0.0219
 6414SOL     OW25427   5.154   4.018   5.590 -0.2723 -0.5664  0.5654
 6414SOL    HW225428   5.064   3.989   5.572 -0.5120 -1.1834  2.5326
 6414SOL    HW325429   5.208   3.963   5.534 -1.0333 -1.2554  0.4851
 6414SOL    MW425430   5.149   4.007   5.580  0.7986  0.0163 -0.7136
 6415SOL     OW25431   4.863   4.339   3.900 -0.5052  0.1925  0.0501
 6415SOL    HW225432   4.809   4.264   3.875 -0.3968  0.4745 -1.0676
 6415SOL    HW325433   4.833   4.362   3.988 -1.6230 -0.1619 -0.2303
 6415SOL    MW425434   4.852   4.332   3.908 -0.5924 -0.1155 -0.2776
 6416SOL     OW25435   5.781   1.274   5.844 -0.1713  0.2729  0.3926
 6416SOL    HW225436   5.753   1.360   5.812  0.2208  0.3197  0.1751
 6416SOL    HW325437   5.868   1.261   5.807 -0.1924 -0.1825  0.4962
 6416SOL    MW425438   5.789   1.284   5.835 -0.4724 -0.2292 -0.0110
 6417SOL     OW25439   3.221   5.902   2.691 -0.1848 -0.0937 -0.4781
 6417SOL    HW225440   3.147   5.843   2.703 -0.0753 -0.2424 -0.5261
 6417SOL    HW325441   3.277   5.885   2.767 -1.2265  1.5612  0.7191
 6417SOL    MW425442   3.219   5.892   2.703  0.2098  0.2278 -0.2609
 6418SOL     OW25443   1.859   1.783   0.960 -0.2517  0.1704  0.7748
 6418SOL    HW225444   1.803   1.706   0.953 -0.3236  0.1986  1.0185
 6418SOL    HW325445   1.862   1.820   0.872 -0.4621  0.0616  0.7230
 6418SOL    MW425446   1.852   1.778   0.948 -0.1414 -0.7145 -0.5114
 6419SOL     OW25447   3.793   2.361   4.928  0.3197 -0.1200 -0.0824
 6419SOL    HW225448   3.709   2.331   4.961 -0.2220  0.4900 -0.8633
 6419SOL    HW325449   3.799   2.324   4.840  0.8642 -0.1624 -0.0276
 6419SOL    MW425450   3.783   2.352   4.921 -0.1612  0.3219 -0.2362
 6420SOL     OW25451   6.319   5.683   1.643  0.6894  0.1735  0.2561
 6420SOL    HW225452   6.237   5.705   1.687 -0.1782 -0.3044 -1.0774
 6420SOL    HW325453   6.386   5.731   1.693 -0.4643  1.1166  0.9592
 6420SOL    MW425454   6.317   5.692   1.655 -0.3986 -0.4511 -0.1548
 6421SOL     OW25455   0.995   2.619   4.874 -0.3745 -0.0472  0.3126
 6421SOL    HW225456   1.036   2.533   4.881 -0.7226 -0.1036  2.1083
 6421SOL    HW325457   0.956   2.635   4.960 -0.5329  1.8086 -0.0499
 6421SOL    MW425458   0.995   2.610   4.886 -0.2490  0.0674 -0.1361
 6422SOL     OW25459   1.781   2.376   0.491 -0.1229  0.1147 -0.2448
 6422SOL    HW225460   1.717   2.441   0.518  1.5524  0.5276  3.2815
 6422SOL    HW325461   1.763   2.300   0.546  0.9688 -0.5992 -0.8375
 6422SOL    MW425462   1.770   2.375   0.502  0.5949 -0.2004  0.3604
 6423SOL     OW25463   2.274   0.205   0.350 -0.1127  0.2093  0.1143
 6423SOL    HW225464   2.231   0.188   0.434  0.2481  0.7251  0.4160
 6423SOL    HW325465   2.326   0.127   0.333 -0.3469  0.0185  0.2707
 6423SOL    MW425466   2.275   0.193   0.359  0.2438  0.2886  0.0923
 6424SOL     OW25467   0.209   5.975   3.558 -0.1238 -0.0633  1.0691
 6424SOL    HW225468   0.257   6.058   3.555 -0.0383 -0.1254  0.7322
 6424SOL    HW325469   0.272   5.910   3.525 -0.5122 -0.1112  0.4085
 6424SOL    MW425470   0.224   5.977   3.553  0.2059  0.1645 -0.3016
 6425SOL     OW25471   2.632   0.562   3.361  0.0601 -0.4028 -0.1090
 6425SOL    HW225472   2.580   0.512   3.424  0.3857  0.6169  0.9987
 6425SOL    HW325473   2.588   0.647   3.355  1.8079  0.6504  1.1934
 6425SOL    MW425474   2.619   0.567   3.368 -0.5701 -0.2352 -0.7532
 6426SOL     OW25475   4.706   2.003   3.257  0.1346 -0.0744 -0.1057
 6426SOL    HW225476   4.655   2.063   3.202  0.4395 -0.2333 -0.5672
 6426SOL    HW325477   4.657   1.998   3.339  0.3091  1.1172  0.0867
 6426SOL    MW425478   4.693   2.010   3.261  0.2301  0.0312 -0.1532
 6427SOL     OW25479   1.128   3.227   6.417  0.0729  0.2416  0.1641
 6427SOL    HW225480   1.081   3.188   6.343  0.2880  1.3156 -0.5637
 6427SOL    HW325481   1.059   3.263   6.473 -0.1945 -1.9220  1.3377
 6427SOL    MW425482   1.113   3.227   6.415  0.2521 -0.0062 -0.3779
 6428SOL     OW25483   5.203   6.354   0.902 -0.2286  0.2676 -0.2070
 6428SOL    HW225484   5.252   6.277   0.873  1.7203  0.6462  1.8970
 6428SOL    HW325485   5.262   6.401   0.960 -1.2303  3.5721 -1.5991
 6428SOL    MW425486   5.217   6.350   0.906 -0.2987 -0.0991 -0.6110
 6429SOL     OW25487   5.299   2.203   2.605  0.4333 -0.6111 -0.0785
 6429SOL    HW225488   5.253   2.237   2.528  1.1775 -1.8807 -1.1107
 6429SOL    HW325489   5.261   2.117   2.621  2.2191 -1.5697 -0.7812
 6429SOL    MW425490   5.288   2.196   2.597  0.1940  0.2390 -0.6807
 6430SOL     OW25491   5.538   4.835   2.239  0.0480 -0.1065  0.4156
 6430SOL    HW225492   5.472   4.858   2.174  1.2598  1.3436 -0.3798
 6430SOL    HW325493   5.501   4.865   2.323 -0.1961  0.9584 -0.0547
 6430SOL    MW425494   5.524   4.842   2.242  0.2195  0.6868  0.7960
 6431SOL     OW25495   2.323   1.308   5.261  0.4669  0.4428  0.1661
 6431SOL    HW225496   2.278   1.304   5.346 -0.7220 -1.4910 -0.4987
 6431SOL    HW325497   2.415   1.325   5.283  0.1842 -0.0314  1.8427
 6431SOL    MW425498   2.329   1.310   5.275  0.1627 -0.0419 -0.2173
 6432SOL     OW25499   0.779   3.762   5.824  0.3994  0.5135 -0.0832
 6432SOL    HW225500   0.797   3.840   5.772 -1.1102  0.2470 -1.0459
 6432SOL    HW325501   0.771   3.691   5.760 -2.2915  0.3137  0.3438
 6432SOL    MW425502   0.780   3.763   5.809  0.1366 -0.1202 -0.5266
 6433SOL     OW25503   1.480   3.809   1.046 -0.0562  0.4678  0.6323
 6433SOL    HW225504   1.487   3.770   1.134  2.2432 -0.9579 -0.1017
 6433SOL    HW325505   1.513   3.741   0.987 -1.0000  1.6097 -1.3144
 6433SOL    MW425506   1.485   3.795   1.050  0.5581 -0.2931  0.0200
 6434SOL     OW25507   0.752   3.969   5.636  0.0658 -0.3667  0.2503
 6434SOL    HW225508   0.747   3.912   5.560  1.0884  0.1314 -0.2054
 6434SOL    HW325509   0.661   3.979   5.664 -0.4499  0.2650 -1.5218
 6434SOL    MW425510   0.740   3.963   5.630 -0.1598 -0.2682  0.1978
 6435SOL     OW25511   5.662   1.190   2.475 -0.1288  0.1366  0.5604
 6435SOL    HW225512   5.678   1.106   2.432  0.4829  0.4660  0.1247
 6435SOL    HW325513   5.726   1.194   2.546 -0.1772  0.2211  0.5995
 6435SOL    MW425514   5.673   1.179   2.479  0.2912  0.1473 -0.2860
 6436SOL     OW25515   5.991   5.643   4.690  0.0648 -0.6318  0.2173
 6436SOL    HW225516   6.023   5.559   4.722 -1.5040 -0.6235  2.0436
 6436SOL    HW325517   6.069   5.698   4.684  0.9072 -1.7461  0.5815
 6436SOL    MW425518   6.005   5.639   4.694 -0.6048 -0.4405  0.3527
 6437SOL     OW25519   0.112   5.543   4.378  0.1520  0.0934 -0.3635
 6437SOL    HW225520   0.136   5.456   4.345 -0.7966  0.2321 -1.4893
 6437SOL    HW325521   0.184   5.599   4.349 -0.4277  0.1200 -1.8552
 6437SOL    MW425522   0.125   5.539   4.370 -0.4281  0.5196  0.0290
 6438SOL     OW25523   4.078   1.964   4.975  0.1284  0.2690 -0.1427
 6438SOL    HW225524   4.144   1.972   5.044 -0.4517 -0.2202  0.4886
 6438SOL    HW325525   4.085   2.045   4.926  2.1778 -0.3604 -0.9905
 6438SOL    MW425526   4.087   1.976   4.978  0.4441 -0.0198  0.2781
 6439SOL     OW25527   3.197   5.910   3.370  0.3500 -0.1631  0.4076
 6439SOL    HW225528   3.263   5.974   3.344  0.6950  0.6434  2.9855
 6439SOL    HW325529   3.240   5.825   3.358  0.5993  0.1560 -1.1482
 6439SOL    MW425530   3.211   5.907   3.365 -0.0351 -0.0613 -0.2515
 6440SOL     OW25531   0.475   0.867   2.462  0.2020  0.3227 -0.3722
 6440SOL    HW225532   0.472   0.837   2.372 -0.9843 -2.5996  0.5188
 6440SOL    HW325533   0.568   0.869   2.484  0.4147 -0.6920 -1.1472
 6440SOL    MW425534   0.487   0.864   2.453  0.3998 -0.6502  0.0998
 6441SOL     OW25535   0.356   4.278   2.488  0.4315  0.5807  0.4128
 6441SOL    HW225536   0.389   4.316   2.569  1.2037 -1.1977  0.9810
 6441SOL    HW325537   0.375   4.184   2.495 -1.9226 -0.0610 -0.6315
 6441SOL    MW425538   0.363   4.270   2.499 -0.1782  0.1748 -0.1298
 6442SOL     OW25539   3.866   2.349   2.498  0.6622  0.2120  0.0610
 6442SOL    HW225540   3.940   2.288   2.497  0.2421 -0.3125  0.3083
 6442SOL    HW325541   3.806   2.313   2.432  2.0861  2.5250 -2.7568
 6442SOL    MW425542   3.868   2.336   2.489 -0.1176  0.2513  0.1345
 6443SOL     OW25543   4.362   3.107   4.320 -0.4669  0.9981  0.3066
 6443SOL    HW225544   4.453   3.120   4.348 -0.0903 -0.2535 -0.2633
 6443SOL    HW325545   4.356   3.150   4.235 -0.9464  2.7017  1.1637
 6443SOL    MW425546   4.374   3.114   4.313 -0.2868  0.1115 -0.4233
 6444SOL     OW25547   3.902   0.930   3.867  0.0340  0.4629  0.0347
 6444SOL    HW225548   3.932   1.021   3.869  3.5976 -0.5561 -0.3538
 6444SOL    HW325549   3.899   0.904   3.959  1.3001  0.3460  0.0537
 6444SOL    MW425550   3.905   0.939   3.880 -0.0841  0.3822  0.3067
 6445SOL     OW25551   2.118   5.028   4.576  0.0313  0.0927  0.1810
 6445SOL    HW225552   2.079   4.943   4.554 -0.8947  0.7749 -0.9231
 6445SOL    HW325553   2.159   5.057   4.494 -0.0060  0.8797  0.4313
 6445SOL    MW425554   2.118   5.020   4.562  0.7533 -0.0998  0.2010
 6446SOL     OW25555   0.325   4.516   1.574 -0.1016  0.3478 -0.2736
 6446SOL    HW225556   0.308   4.422   1.583  0.6419  0.2326 -0.0249
 6446SOL    HW325557   0.390   4.535   1.641 -2.7345  1.7674  2.0623
 6446SOL    MW425558   0.331   4.506   1.584  0.5508  0.2834 -0.1198
 6447SOL     OW25559   2.564   1.913   1.175 -0.0017 -0.1560  0.6104
 6447SOL    HW225560   2.516   1.920   1.257 -0.4978  2.5739  0.1491
 6447SOL    HW325561   2.585   2.003   1.151 -0.5946 -0.7749 -2.6868
 6447SOL    MW425562   2.561   1.925   1.182  0.2414  0.3026 -0.5534
 6448SOL     OW25563   4.693   2.807   3.996  0.5725 -0.3641 -0.2836
 6448SOL    HW225564   4.597   2.810   3.996  0.5626  2.7926 -1.1267
 6448SOL    HW325565   4.716   2.793   4.088 -0.5754 -4.3136 -0.4350
 6448SOL    MW425566   4.683   2.805   4.008 -1.0286  0.6817 -0.1186
 6449SOL     OW25567   5.082   5.326   3.079  0.0715 -0.0878  0.5646
 6449SOL    HW225568   5.147   5.325   3.150 -2.7863  2.7045  3.5866
 6449SOL    HW325569   5.008   5.276   3.115 -1.7534  2.0482 -0.0210
 6449SOL    MW425570   5.081   5.319   3.093  0.2566 -0.6961 -0.6099
 6450SOL     OW25571   4.178   1.864   0.370  0.3656  0.2788  0.0317
 6450SOL    HW225572   4.094   1.893   0.406 -0.2371 -1.6943  0.3564
 6450SOL    HW325573   4.234   1.941   0.374 -0.9879  1.2600  1.1665
 6450SOL    MW425574   4.174   1.878   0.375 -0.0449  0.8586 -0.7713
 6451SOL     OW25575   6.055   0.434   5.228 -0.2365 -0.0238 -0.2471
 6451SOL    HW225576   6.129   0.373   5.233  0.5784  0.9898  0.5691
 6451SOL    HW325577   6.017   0.432   5.316 -1.7182 -1.1451 -0.8773
 6451SOL    MW425578   6.060   0.426   5.240  0.5263 -0.5398  0.2302
 6452SOL     OW25579   2.405   0.288   3.977  0.0309 -0.4337  0.2272
 6452SOL    HW225580   2.328   0.340   3.998  0.1335  0.0342 -0.5283
 6452SOL    HW325581   2.458   0.344   3.921  1.4661 -0.3235  1.6164
 6452SOL    MW425582   2.402   0.302   3.972 -0.1410 -0.5864  0.3388
 6453SOL     OW25583   1.588   0.069   2.746 -0.1384  0.4829 -0.0880
 6453SOL    HW225584   1.498   0.101   2.752 -0.9804 -1.7943  0.4823
 6453SOL    HW325585   1.590   0.017   2.666  0.1392 -0.9001  0.7849
 6453SOL    MW425586   1.577   0.066   2.736  0.4865 -0.3889  0.0144
 6454SOL     OW25587   0.097   0.038   2.904 -0.1387  0.5179 -0.1133
 6454SOL    HW225588   0.042   0.080   2.839 -0.2096  2.8872  1.3647
 6454SOL    HW325589   0.087  -0.056   2.887  0.8604  0.9683 -4.2635
 6454SOL    MW425590   0.088   0.031   2.893 -0.3115 -0.0749  0.2790
 6455SOL     OW25591   0.585   4.542   0.815  0.4206  0.2586 -0.0841
 6455SOL    HW225592   0.587   4.477   0.886 -0.8568  0.6498  0.3403
 6455SOL    HW325593   0.525   4.610   0.846  0.0235  0.5625 -1.4368
 6455SOL    MW425594   0.577   4.542   0.829  0.1842  0.1950 -0.4503
 6456SOL     OW25595   5.439   0.601   2.625  0.1617 -0.1729  0.2173
 6456SOL    HW225596   5.372   0.533   2.633 -0.6279  0.1664 -2.4438
 6456SOL    HW325597   5.425   0.638   2.538  1.2203  2.7374  1.1666
 6456SOL    MW425598   5.428   0.597   2.614 -0.0709 -0.2131  0.0062
 6457SOL     OW25599   1.091   2.785   0.933 -0.3593 -0.2676 -0.3345
 6457SOL    HW225600   1.028   2.841   0.979 -0.5563 -0.0588 -0.8517
 6457SOL    HW325601   1.162   2.772   0.996  0.3217  1.6281 -0.6263
 6457SOL    MW425602   1.092   2.791   0.948  0.3944 -0.4843 -0.1761
 6458SOL     OW25603   4.081   1.125   4.277 -0.3383 -0.3430  0.2298
 6458SOL    HW225604   4.034   1.084   4.349 -0.9226  0.3248  0.2340
 6458SOL    HW325605   4.105   1.053   4.219 -1.2447 -0.6984  0.2954
 6458SOL    MW425606   4.078   1.110   4.279 -0.2155 -0.7332 -0.0052
 6459SOL     OW25607   0.998   4.130   0.952 -0.1024  0.1753  0.7532
 6459SOL    HW225608   1.050   4.137   1.031  0.1889 -0.4470  0.6257
 6459SOL    HW325609   0.997   4.218   0.916  0.1471  0.3674  1.2096
 6459SOL    MW425610   1.005   4.142   0.957 -0.3193 -0.4179 -0.6538
 6460SOL     OW25611   5.597   5.288   4.041 -0.1526 -0.3559  0.1633
 6460SOL    HW225612   5.538   5.330   3.980 -0.3459  0.1185  0.6680
 6460SOL    HW325613   5.684   5.316   4.015 -0.3093  0.7658  0.7866
 6460SOL    MW425614   5.601   5.297   4.030  0.3087  0.3285 -0.0728
 6461SOL     OW25615   5.389   1.464   5.348 -0.2103  0.4842 -0.4654
 6461SOL    HW225616   5.451   1.517   5.397  0.6326  0.2653 -1.2725
 6461SOL    HW325617   5.420   1.374   5.361  0.7111  0.4939 -2.2835
 6461SOL    MW425618   5.401   1.459   5.356 -0.0551  0.5128 -0.1439
 6462SOL     OW25619   0.992   5.226   2.729 -0.0661 -0.1806  0.1632
 6462SOL    HW225620   1.063   5.180   2.684  0.4102  0.9946 -0.3186
 6462SOL    HW325621   1.009   5.318   2.713  0.3004  0.3329  3.0092
 6462SOL    MW425622   1.004   5.232   2.721 -0.7529  0.0013  0.7711
 6463SOL     OW25623   3.528   1.465   6.235  0.0135 -0.0350 -0.3602
 6463SOL    HW225624   3.590   1.410   6.186 -1.9953 -1.3225 -1.6041
 6463SOL    HW325625   3.511   1.539   6.176 -2.0083 -1.3234 -1.5098
 6463SOL    MW425626   3.534   1.467   6.220 -0.0119 -0.3315 -0.8193
 6464SOL     OW25627   5.121   4.354   0.629 -0.2810 -0.0779 -0.1275
 6464SOL    HW225628   5.089   4.381   0.715 -0.1839 -1.2807  0.3054
 6464SOL    HW325629   5.186   4.286   0.649 -0.6059 -0.7018 -1.1801
 6464SOL    MW425630   5.126   4.349   0.643  0.7264 -0.3199  0.5541
 6465SOL     OW25631   0.765   2.038   1.330  0.2931  0.2585 -0.1356
 6465SOL    HW225632   0.708   2.110   1.303  1.1203  1.1626  0.4397
 6465SOL    HW325633   0.831   2.032   1.260  0.1134 -0.0858 -0.2803
 6465SOL    MW425634   0.766   2.047   1.317 -0.5064 -0.3311  0.8038
 6466SOL     OW25635   3.056   1.758   1.754  0.4256  0.6022  0.5692
 6466SOL    HW225636   3.049   1.731   1.662  3.2592 -0.0476  0.4453
 6466SOL    HW325637   3.115   1.694   1.793  1.3243  2.3297  2.1830
 6466SOL    MW425638   3.063   1.746   1.747  0.3162 -0.2510 -0.6260
 6467SOL     OW25639   4.934   4.331   0.429  0.0750  0.4304  0.7318
 6467SOL    HW225640   4.984   4.333   0.511 -1.2935 -1.6987  1.7028
 6467SOL    HW325641   4.849   4.369   0.452 -0.6263 -0.9841  0.5758
 6467SOL    MW425642   4.929   4.337   0.443  0.3650  0.0380 -0.1136
 6468SOL     OW25643   6.234   6.049   2.483  0.3713  0.4089 -0.0702
 6468SOL    HW225644   6.210   6.021   2.395  0.1565  0.4557 -0.0272
 6468SOL    HW325645   6.150   6.056   2.529  0.5111 -0.0095  0.2515
 6468SOL    MW425646   6.219   6.046   2.478 -0.1790 -0.3953  0.1532
 6469SOL     OW25647   1.048   3.720   1.171 -0.0233  0.4203 -0.0866
 6469SOL    HW225648   1.096   3.754   1.095 -0.4991 -0.4593 -0.7981
 6469SOL    HW325649   0.983   3.660   1.134  0.6942 -1.1708  1.0956
 6469SOL    MW425650   1.046   3.717   1.156  0.1006 -0.4955  0.7493
 6470SOL     OW25651   1.944   0.655   5.809 -0.3112  0.5044 -0.0627
 6470SOL    HW225652   2.035   0.631   5.790 -0.0598  1.2782  0.1384
 6470SOL    HW325653   1.925   0.611   5.892  0.1023  0.8825  0.2361
 6470SOL    MW425654   1.954   0.646   5.818 -0.5755  0.1687  0.0774
 6471SOL     OW25655   2.559   3.554   4.459 -0.4739  0.2646  0.3882
 6471SOL    HW225656   2.463   3.552   4.467 -0.7306  0.4701 -1.9139
 6471SOL    HW325657   2.582   3.465   4.431 -0.3197  0.8293 -1.4439
 6471SOL    MW425658   2.549   3.542   4.456  0.6475  0.0270 -0.7417
 6472SOL     OW25659   1.251   2.120   4.675  0.3348  0.3765  0.1319
 6472SOL    HW225660   1.158   2.130   4.692  0.5757  1.1468  1.0771
 6472SOL    HW325661   1.264   2.153   4.586 -0.3889 -0.3347 -0.2412
 6472SOL    MW425662   1.241   2.126   4.665  0.4378 -0.2838 -0.4540
 6473SOL     OW25663   4.697   6.382   0.929 -0.1454 -0.5585  0.3009
 6473SOL    HW225664   4.697   6.391   1.024 -1.5806 -1.9129  0.4680
 6473SOL    HW325665   4.738   6.463   0.897 -0.7356  0.4632  2.0156
 6473SOL    MW425666   4.703   6.394   0.937 -0.2656  0.3087 -0.5756
 6474SOL     OW25667   2.321   3.515   1.991 -0.5579  0.5023  0.3635
 6474SOL    HW225668   2.386   3.464   2.038  1.5905  2.5381 -0.2460
 6474SOL    HW325669   2.282   3.452   1.929  0.4382 -0.8726  1.0815
 6474SOL    MW425670   2.324   3.500   1.989 -0.0273 -0.5656  0.3853
 6475SOL     OW25671   1.371   3.026   6.249 -0.0694  0.5178  0.0820
 6475SOL    HW225672   1.418   2.956   6.293 -2.0125 -0.0465  1.3946
 6475SOL    HW325673   1.397   3.106   6.295  0.1127  0.2985  0.3591
 6475SOL    MW425674   1.380   3.028   6.261 -0.0859 -0.0438  0.3861
 6476SOL     OW25675   2.017   0.461   4.700  0.0409 -0.4743  0.3746
 6476SOL    HW225676   2.111   0.482   4.700 -0.1376  0.3978 -0.2555
 6476SOL    HW325677   1.989   0.476   4.790  0.5422 -0.9328  0.6120
 6476SOL    MW425678   2.026   0.466   4.712  0.0927 -0.2680  0.4752
 6477SOL     OW25679   4.634   3.033   1.021 -0.0092 -0.5267  0.7536
 6477SOL    HW225680   4.669   3.087   1.092  0.1631 -0.7603  0.8494
 6477SOL    HW325681   4.550   3.073   0.999  1.0592  1.0785 -0.6482
 6477SOL    MW425682   4.627   3.045   1.027  0.4914 -0.2777 -0.1266
 6478SOL     OW25683   3.144   4.141   1.449  0.4512  0.7164 -0.0755
 6478SOL    HW225684   3.206   4.175   1.514  1.9924 -2.1232  0.1236
 6478SOL    HW325685   3.091   4.078   1.498  1.2038 -0.9956 -1.3466
 6478SOL    MW425686   3.145   4.137   1.464  0.2424 -0.3229 -0.2307
 6479SOL     OW25687   5.412   5.479   1.821  0.3049  0.2586  0.3366
 6479SOL    HW225688   5.486   5.418   1.814  1.6635  2.0049 -1.7126
 6479SOL    HW325689   5.416   5.531   1.741 -2.7984  0.8693  0.4768
 6479SOL    MW425690   5.423   5.478   1.809 -0.1507 -0.4762 -0.0269
 6480SOL     OW25691   4.735   5.249   2.496  0.0433 -0.0873 -0.3002
 6480SOL    HW225692   4.731   5.331   2.546 -0.4005 -0.3639  0.1291
 6480SOL    HW325693   4.791   5.192   2.549 -0.8056 -0.5415  0.1279
 6480SOL    MW425694   4.742   5.253   2.510 -0.6713  0.1617 -0.6765
 6481SOL     OW25695   5.306   3.491   3.753 -0.0272  0.6221 -0.4279
 6481SOL    HW225696   5.293   3.400   3.779 -1.2018  1.0159  0.4396
 6481SOL    HW325697   5.401   3.501   3.749  0.1180 -0.8369 -1.2908
 6481SOL    MW425698   5.317   3.481   3.756 -0.1169 -0.1828 -0.6673
 6482SOL     OW25699   5.495   2.953   2.859 -0.2853  0.5295 -0.5751
 6482SOL    HW225700   5.493   2.942   2.764  0.8452  2.2827 -0.8573
 6482SOL    HW325701   5.424   3.015   2.877  0.9268  1.9934 -0.6202
 6482SOL    MW425702   5.486   2.960   2.849  0.3776  0.0475  0.4758
 6483SOL     OW25703   5.351   4.006   3.763 -0.1066 -0.3303  0.6609
 6483SOL    HW225704   5.337   4.095   3.730 -0.2279 -0.6318 -0.1224
 6483SOL    HW325705   5.317   3.949   3.694 -0.5693 -0.9839  1.4011
 6483SOL    MW425706   5.345   4.010   3.750  0.0923 -0.1712 -0.4758
 6484SOL     OW25707   5.694   4.436   2.680  0.4483 -0.0049  0.2765
 6484SOL    HW225708   5.650   4.466   2.759  0.3998 -0.1845  0.3172
 6484SOL    HW325709   5.683   4.341   2.680 -0.9474  0.1183 -0.7604
 6484SOL    MW425710   5.687   4.427   2.690  0.3679  0.2724 -0.0665
 6485SOL     OW25711   5.530   6.238   1.047  0.3786 -0.4236  0.1088
 6485SOL    HW225712   5.544   6.144   1.058  2.2977 -0.2923 -0.7622
 6485SOL    HW325713   5.571   6.258   0.962  0.3506  1.2524  0.4638
 6485SOL    MW425714   5.538   6.228   1.037 -0.0505  0.5603  0.1699
 6486SOL     OW25715   6.163   3.279   4.784 -0.2673  0.3333 -0.6479
 6486SOL    HW225716   6.162   3.320   4.698  0.4023  0.3241 -0.6658
 6486SOL    HW325717   6.120   3.195   4.771  3.6345 -1.7196 -2.0678
 6486SOL    MW425718   6.157   3.273   4.771 -0.3761  0.3128 -0.1721
 6487SOL     OW25719   3.079   0.233   1.197 -0.2830  0.1576  0.6163
 6487SOL    HW225720   3.028   0.256   1.119 -0.7106 -0.2610  0.7631
 6487SOL    HW325721   3.168   0.218   1.165 -0.9177 -2.2850 -0.2078
 6487SOL    MW425722   3.084   0.234   1.183 -0.6134  0.4443  0.3206
 6488SOL     OW25723   6.327   2.564   4.459  0.3588 -0.1927  0.0332
 6488SOL    HW225724   6.391   2.562   4.530 -0.5979 -0.1015  0.9051
 6488SOL    HW325725   6.377   2.538   4.382  2.0248  2.1187  0.2291
 6488SOL    MW425726   6.342   2.560   4.458 -0.0061 -0.1967  0.0872
 6489SOL     OW25727   5.072   4.776   0.663  0.6578  0.2543 -0.7027
 6489SOL    HW225728   5.064   4.805   0.573 -0.0171 -1.5762 -1.2660
 6489SOL    HW325729   5.135   4.705   0.661 -1.1809 -1.4855 -0.1898
 6489SOL    MW425730   5.079   4.771   0.651 -0.3752  0.1066 -0.4716
 6490SOL     OW25731   0.308   5.428   5.755 -0.3870 -0.6512  0.0378
 6490SOL    HW225732   0.218   5.394   5.753 -0.2594 -0.9882 -2.2355
 6490SOL    HW325733   0.347   5.386   5.832 -1.9440 -1.0575  0.6646
 6490SOL    MW425734   0.301   5.418   5.765  0.0011  0.0785  0.2772
 6491SOL     OW25735   3.998   2.522   1.902 -0.1195 -0.0098 -0.1091
 6491SOL    HW225736   4.077   2.552   1.857  0.1420 -1.6081 -0.7810
 6491SOL    HW325737   3.973   2.595   1.958  1.3294  0.8598 -0.5485
 6491SOL    MW425738   4.005   2.535   1.904 -0.2014  0.6858 -0.3831
 6492SOL     OW25739   5.614   4.074   2.269  0.2207  0.0442  0.2949
 6492SOL    HW225740   5.536   4.027   2.300  1.2251 -0.1666  2.7314
 6492SOL    HW325741   5.633   4.035   2.183 -2.0023 -0.2740 -0.1286
 6492SOL    MW425742   5.606   4.063   2.262  0.7570  0.2396  0.6691
 6493SOL     OW25743   5.930   3.002   5.939 -0.3240  0.3740 -0.1388
 6493SOL    HW225744   5.866   3.021   6.008 -0.7542  0.2365 -0.4986
 6493SOL    HW325745   5.995   3.071   5.947  0.4021 -0.4227  1.3391
 6493SOL    MW425746   5.930   3.013   5.949  0.3859 -0.7225 -0.2557
 6494SOL     OW25747   2.346   1.433   4.254  0.3543 -0.3961  0.6260
 6494SOL    HW225748   2.291   1.432   4.175  0.2680  1.4551  0.6245
 6494SOL    HW325749   2.434   1.416   4.222 -0.1606 -4.0987  0.7015
 6494SOL    MW425750   2.350   1.431   4.239 -0.2110  0.6386 -0.2390
 6495SOL     OW25751   4.158   0.971   0.707 -0.0616  0.4105 -0.1422
 6495SOL    HW225752   4.161   0.946   0.615 -1.0042  1.1328 -0.3797
 6495SOL    HW325753   4.179   0.890   0.754  0.7803  0.1129 -0.9850
 6495SOL    MW425754   4.161   0.957   0.701  0.2449 -0.6078  0.3930
 6496SOL     OW25755   3.156   5.740   4.903  0.0832 -0.3566 -0.0769
 6496SOL    HW225756   3.084   5.781   4.952  1.1570  0.9076  0.5210
 6496SOL    HW325757   3.186   5.809   4.843  1.6960 -0.3744  0.6698
 6496SOL    MW425758   3.150   5.755   4.901 -0.0805  0.0203  0.0008
 6497SOL     OW25759   2.825   4.588   3.213  0.6037  0.3329  0.2535
 6497SOL    HW225760   2.828   4.676   3.252 -0.4889 -0.3177  1.9344
 6497SOL    HW325761   2.737   4.556   3.234 -0.3325  0.1256 -3.3908
 6497SOL    MW425762   2.814   4.596   3.221  0.0598  0.4277  0.0189
 6498SOL     OW25763   3.691   5.435   0.148  0.2614  0.6440  0.1357
 6498SOL    HW225764   3.629   5.425   0.075  0.8390 -1.7778 -0.1219
 6498SOL    HW325765   3.670   5.520   0.186 -1.9685  0.7281 -1.1014
 6498SOL    MW425766   3.680   5.445   0.143  0.1912 -0.0357 -0.3590
 6499SOL     OW25767   4.192   4.332   4.467  0.1259  0.7317  0.2122
 6499SOL    HW225768   4.157   4.324   4.555  0.4389 -2.5603  0.1978
 6499SOL    HW325769   4.267   4.391   4.475 -2.2717  3.8560  1.2029
 6499SOL    MW425770   4.197   4.338   4.480  0.3337  0.4617 -0.4236
 6500SOL     OW25771   5.020   1.208   4.262 -0.3779  0.6177 -0.1637
 6500SOL    HW225772   4.944   1.232   4.314 -0.2232  0.0847  0.3076
 6500SOL    HW325773   5.092   1.203   4.325  0.7047  3.8299 -0.9211
 6500SOL    MW425774   5.019   1.211   4.277 -0.8130  0.4030  0.0488
 6501SOL     OW25775   4.513   1.948   4.889 -0.5161  0.2246 -0.5179
 6501SOL    HW225776   4.584   1.940   4.825 -0.3560 -0.3549 -0.2708
 6501SOL    HW325777   4.508   1.862   4.931 -1.8328  0.0509 -1.0141
 6501SOL    MW425778   4.522   1.936   4.886 -0.3729  0.1625 -0.4008
 6502SOL     OW25779   2.291   2.238   4.535  0.5845  0.1811  0.3316
 6502SOL    HW225780   2.255   2.326   4.549 -0.5668  0.3253 -2.7181
 6502SOL    HW325781   2.386   2.251   4.533  0.4168  1.8938 -2.3060
 6502SOL    MW425782   2.298   2.251   4.536 -0.1396  0.2215 -0.0412
 6503SOL     OW25783   1.646   0.363   1.579 -0.3655 -0.5295 -0.8885
 6503SOL    HW225784   1.704   0.295   1.545 -0.5508 -1.9695  1.4582
 6503SOL    HW325785   1.571   0.363   1.520  0.3890 -1.2274 -1.8638
 6503SOL    MW425786   1.643   0.354   1.567  0.9070 -1.1280 -0.1146
 6504SOL     OW25787   2.307   1.915   4.453 -0.4604  0.6883 -0.0034
 6504SOL    HW225788   2.217   1.889   4.469  0.3503 -0.8305  2.8054
 6504SOL    HW325789   2.348   1.838   4.413 -0.2415  1.1441 -0.6772
 6504SOL    MW425790   2.301   1.901   4.450  0.1803  0.2077 -0.1142
 6505SOL     OW25791   4.181   1.223   4.880 -0.8395  0.4367 -0.1784
 6505SOL    HW225792   4.206   1.276   4.956 -1.9743 -1.3925  1.5706
 6505SOL    HW325793   4.245   1.152   4.878  0.5095  1.5856 -2.3425
 6505SOL    MW425794   4.193   1.221   4.890 -0.0855  0.1756  0.0738
 6506SOL     OW25795   0.895   5.558   0.457 -0.4235 -0.2627 -0.3659
 6506SOL    HW225796   0.877   5.618   0.529  0.6075  0.2829 -0.5434
 6506SOL    HW325797   0.831   5.582   0.390 -0.3430  0.3130 -0.2438
 6506SOL    MW425798   0.884   5.569   0.458 -0.2654 -0.5722 -0.1553
 6507SOL     OW25799   5.103   1.640   6.158 -0.2363  0.5646  0.0491
 6507SOL    HW225800   5.060   1.705   6.214 -2.3830 -1.1227  0.4821
 6507SOL    HW325801   5.139   1.576   6.220 -2.0168 -0.9431 -0.3912
 6507SOL    MW425802   5.102   1.641   6.174  0.3305  0.3769 -0.8726
 6508SOL     OW25803   3.417   2.242   0.469  0.1490 -0.0991 -0.0227
 6508SOL    HW225804   3.438   2.151   0.488 -0.6152 -0.4964 -0.9786
 6508SOL    HW325805   3.324   2.250   0.491 -0.3563 -0.1604 -1.9482
 6508SOL    MW425806   3.408   2.231   0.474 -0.6166 -0.3158 -0.4266
 6509SOL     OW25807   3.479   6.267   4.819  0.2618 -0.6288 -0.6445
 6509SOL    HW225808   3.488   6.359   4.794  1.6184 -0.3981  0.5406
 6509SOL    HW325809   3.392   6.242   4.787  0.7141  0.4105 -2.9586
 6509SOL    MW425810   3.469   6.276   4.811  0.2176  0.0606  0.1264
 6510SOL     OW25811   4.912   2.041   5.387 -0.1205  0.1977 -0.4121
 6510SOL    HW225812   4.839   1.978   5.389  0.6866 -0.8608 -1.8667
 6510SOL    HW325813   4.869   2.127   5.386 -1.3359 -0.3769 -0.4830
 6510SOL    MW425814   4.896   2.044   5.387  0.5108 -0.2356  0.0763
 6511SOL     OW25815   5.230   5.296   3.824  0.1684 -0.4566  0.1872
 6511SOL    HW225816   5.292   5.290   3.751  0.2970  1.7302  0.0581
 6511SOL    HW325817   5.148   5.325   3.783 -0.8812 -2.8946  0.4141
 6511SOL    MW425818   5.227   5.299   3.809 -0.2595 -0.2057  0.2190
 6512SOL     OW25819   1.815   4.322   3.281 -0.8146  0.1221 -0.2806
 6512SOL    HW225820   1.753   4.310   3.354 -0.9148 -1.5543 -0.5899
 6512SOL    HW325821   1.898   4.341   3.324 -0.5680 -2.1636  0.4208
 6512SOL    MW425822   1.817   4.323   3.296 -0.1266  0.0609 -0.4887
 6513SOL     OW25823   3.180   0.860   6.334 -0.5050  0.3434 -0.4513
 6513SOL    HW225824   3.188   0.769   6.303 -1.0844  0.0548  0.2041
 6513SOL    HW325825   3.089   0.867   6.362 -0.0159  0.5810  1.1587
 6513SOL    MW425826   3.169   0.849   6.333  0.5739 -0.1859 -0.3280
 6514SOL     OW25827   6.253   5.210   2.557 -0.7689 -0.4132 -0.0400
 6514SOL    HW225828   6.292   5.124   2.536 -0.7634 -0.2974 -0.5191
 6514SOL    HW325829   6.173   5.189   2.605 -0.2973 -0.6656  0.6445
 6514SOL    MW425830   6.248   5.196   2.560  0.3770  0.1484 -0.4206
 6515SOL     OW25831   2.485   4.511   2.611 -0.3686 -0.1933  0.2236
 6515SOL    HW225832   2.426   4.539   2.541  1.5079  0.6444 -1.1012
 6515SOL    HW325833   2.499   4.589   2.664  2.2993  0.6938 -1.5836
 6515SOL    MW425834   2.479   4.525   2.609 -0.4830 -0.8472  0.0770
 6516SOL     OW25835   6.099   6.301   3.233  0.0242  0.5969  0.1955
 6516SOL    HW225836   6.037   6.309   3.305 -0.2505  0.6211 -0.0421
 6516SOL    HW325837   6.101   6.208   3.212 -1.1711  0.7855 -0.8706
 6516SOL    MW425838   6.091   6.290   3.239 -0.3367 -0.0653  0.4328
 6517SOL     OW25839   0.485   5.028   4.433 -0.0363 -0.1963 -0.3073
 6517SOL    HW225840   0.458   5.001   4.346  1.5067  0.0536 -0.8896
 6517SOL    HW325841   0.445   4.964   4.492  0.3356 -1.4049 -1.3307
 6517SOL    MW425842   0.476   5.016   4.430  0.2497 -0.1276 -0.2497
 6518SOL     OW25843   1.876   6.230   4.559  0.1669 -0.4305 -0.2266
 6518SOL    HW225844   1.787   6.265   4.564  0.9940  1.7315  0.8035
 6518SOL    HW325845   1.893   6.219   4.465 -0.4422  1.2668 -0.5661
 6518SOL    MW425846   1.867   6.233   4.547 -0.1736  0.1085  0.3634
 6519SOL     OW25847   0.186   3.784   4.490 -0.5395 -0.2390  0.4859
 6519SOL    HW225848   0.234   3.829   4.559 -0.3426  1.2091 -0.5480
 6519SOL    HW325849   0.108   3.839   4.476 -0.7700 -0.7238 -0.1746
 6519SOL    MW425850   0.182   3.797   4.497  0.0740 -0.2018 -0.4150
 6520SOL     OW25851   0.023   2.340   3.351  0.4660  0.0101 -0.3578
 6520SOL    HW225852   0.117   2.346   3.338  0.6135  0.2902  0.7315
 6520SOL    HW325853   0.006   2.394   3.429 -0.3043 -1.6160  0.6556
 6520SOL    MW425854   0.033   2.348   3.360  0.2355  0.4865  0.1008
 6521SOL     OW25855   5.624   3.249   3.895  0.3460  0.3446 -0.1322
 6521SOL    HW225856   5.534   3.224   3.915  0.4494  1.1746  1.5618
 6521SOL    HW325857   5.616   3.330   3.844  0.1303 -0.2962 -1.1438
 6521SOL    MW425858   5.611   3.256   3.891 -0.0887 -0.6749 -0.4945
 6522SOL     OW25859   5.926   3.028   2.942  0.1634  0.8307  0.4279
 6522SOL    HW225860   5.979   3.017   3.021 -0.2049  0.1921  0.5960
 6522SOL    HW325861   5.966   3.101   2.896  1.9333 -0.3753 -0.0460
 6522SOL    MW425862   5.938   3.036   2.946 -0.5173  0.1284  0.2880
 6523SOL     OW25863   0.969   3.193   1.516  0.7679  0.2596  0.0053
 6523SOL    HW225864   1.035   3.161   1.578  0.9877  0.1639 -0.2768
 6523SOL    HW325865   0.911   3.248   1.569  1.2876  0.6448  0.1871
 6523SOL    MW425866   0.970   3.196   1.532 -0.5509  0.7011  0.7080
 6524SOL     OW25867   1.005   4.348   1.525 -0.6207  0.0952  0.4879
 6524SOL    HW225868   1.034   4.264   1.488 -0.8660 -0.4658  1.5125
 6524SOL    HW325869   0.991   4.404   1.449 -0.0121 -0.6490 -0.2012
 6524SOL    MW425870   1.007   4.344   1.510  0.5413 -0.3408  0.1666
 6525SOL     OW25871   2.717   4.385   2.138  0.3998 -0.1002  0.1343
 6525SOL    HW225872   2.644   4.334   2.104 -0.3775  0.7270  0.5378
 6525SOL    HW325873   2.703   4.388   2.233  0.0183  1.4678  0.0537
 6525SOL    MW425874   2.706   4.378   2.146  0.0474  0.1155  0.1667
 6526SOL     OW25875   4.785   5.385   4.123 -0.4892  0.1597 -0.5053
 6526SOL    HW225876   4.782   5.480   4.107 -0.2265  0.1418 -0.6672
 6526SOL    HW325877   4.872   5.371   4.163 -0.5795  0.0059 -0.3628
 6526SOL    MW425878   4.796   5.396   4.126 -0.1657 -0.3881  0.3267
 6527SOL     OW25879   0.685   3.463   3.090 -0.0742 -0.0348  0.2889
 6527SOL    HW225880   0.605   3.511   3.070  0.3848  0.2166 -1.1163
 6527SOL    HW325881   0.669   3.374   3.059 -0.2922 -0.3480  1.2733
 6527SOL    MW425882   0.673   3.458   3.083  0.3372 -0.0673 -0.2547
 6528SOL     OW25883   5.807   5.167   0.296 -1.0867 -0.4421 -0.3555
 6528SOL    HW225884   5.852   5.215   0.227 -1.2487  1.3251  0.6847
 6528SOL    HW325885   5.717   5.199   0.293 -0.6876  1.1218  1.8067
 6528SOL    MW425886   5.801   5.178   0.287  0.8910  0.2144 -0.0675
 6529SOL     OW25887   5.834   1.667   3.756  0.1034  0.7917 -0.1901
 6529SOL    HW225888   5.774   1.738   3.733 -0.0142  0.8919  0.3882
 6529SOL    HW325889   5.862   1.688   3.845  0.3307  0.2910 -0.1397
 6529SOL    MW425890   5.830   1.679   3.765 -0.0889  0.3340 -0.0992
 6530SOL     OW25891   3.565   3.262   2.072 -0.1677 -0.0080  0.0029
 6530SOL    HW225892   3.580   3.352   2.042  1.4812 -0.6289 -1.2134
 6530SOL    HW325893   3.476   3.242   2.043  0.0413  0.7005 -1.2096
 6530SOL    MW425894   3.555   3.272   2.064 -0.6452  0.4031  0.1727
 6531SOL     OW25895   5.004   0.659   6.358 -0.0847  0.4754 -0.1114
 6531SOL    HW225896   4.939   0.654   6.288 -0.0467  1.4259 -0.2269
 6531SOL    HW325897   5.044   0.572   6.360 -0.1242  0.4220 -1.2360
 6531SOL    MW425898   5.001   0.647   6.349 -0.3232  0.6798 -0.2646
 6532SOL     OW25899   1.013   2.710   5.429 -0.6658  0.1671  0.9243
 6532SOL    HW225900   0.965   2.634   5.462 -0.6795 -0.8704 -1.2969
 6532SOL    HW325901   1.099   2.676   5.405 -0.1649  1.1778  1.2224
 6532SOL    MW425902   1.018   2.695   5.430  0.2544 -0.0859 -0.1332
 6533SOL     OW25903   5.935   3.053   5.081 -0.1506 -0.4520 -0.0345
 6533SOL    HW225904   5.895   3.044   5.167 -2.2524 -1.9891 -1.0589
 6533SOL    HW325905   6.019   3.009   5.089 -0.0984 -0.1352  1.3436
 6533SOL    MW425906   5.941   3.046   5.093  0.4521 -0.3229 -0.1198
 6534SOL     OW25907   2.617   4.533   1.550  0.2736 -0.1985 -0.2468
 6534SOL    HW225908   2.604   4.466   1.617  1.3311 -0.7520 -0.5800
 6534SOL    HW325909   2.538   4.527   1.496  0.4256 -1.3090 -0.3732
 6534SOL    MW425910   2.605   4.523   1.551  0.4784 -0.4746 -0.0598
 6535SOL     OW25911   0.258   3.169   1.084  0.4750 -0.9128 -0.2700
 6535SOL    HW225912   0.343   3.212   1.073 -0.0851 -0.3097 -3.2972
 6535SOL    HW325913   0.197   3.241   1.100  0.2849 -1.1635  0.1452
 6535SOL    MW425914   0.262   3.185   1.084 -0.0215  0.2673 -0.4781
 6536SOL     OW25915   3.558   5.653   5.013  0.3174  0.0859 -0.5218
 6536SOL    HW225916   3.616   5.665   5.088 -0.1458 -1.9514  0.2136
 6536SOL    HW325917   3.576   5.729   4.957  2.4950  0.3568  0.4395
 6536SOL    MW425918   3.568   5.665   5.015  0.0512 -0.0845 -0.3134
 6537SOL     OW25919   3.723   5.368   4.988  0.2198  0.4255 -0.5130
 6537SOL    HW225920   3.770   5.293   5.022  0.1488  0.4288 -0.4069
 6537SOL    HW325921   3.722   5.431   5.060  2.7697  1.7016 -1.4879
 6537SOL    MW425922   3.729   5.367   5.002  0.0437 -0.2330 -0.5470
 6538SOL     OW25923   0.802   5.570   2.587 -0.6489  0.0960  0.0992
 6538SOL    HW225924   0.789   5.554   2.680 -1.1451 -5.0598 -0.5266
 6538SOL    HW325925   0.895   5.555   2.572 -0.3387  2.0775 -0.1386
 6538SOL    MW425926   0.813   5.566   2.597 -0.1467  0.6154 -0.5806
 6539SOL     OW25927   6.115   3.283   5.078  0.1648  0.5114  0.4160
 6539SOL    HW225928   6.066   3.201   5.081 -1.8355  1.5864 -0.4873
 6539SOL    HW325929   6.138   3.293   4.985 -1.4330  1.9108  0.1168
 6539SOL    MW425930   6.112   3.274   5.066 -0.0745 -0.3238 -0.2421
 6540SOL     OW25931   6.294   0.650   2.845  0.4030 -0.0130 -0.1060
 6540SOL    HW225932   6.302   0.734   2.891  1.6478 -0.5338  0.6720
 6540SOL    HW325933   6.275   0.586   2.913  1.4690 -0.6689 -0.3993
 6540SOL    MW425934   6.293   0.653   2.860  0.4597 -0.5421  0.5765
 6541SOL     OW25935   3.798   0.772   5.775 -0.1073 -0.4742  0.3577
 6541SOL    HW225936   3.864   0.720   5.821  0.1533  0.0954  0.6449
 6541SOL    HW325937   3.806   0.747   5.683  0.9515  0.0498  0.2922
 6541SOL    MW425938   3.807   0.762   5.769  0.5217  0.3756 -0.3262
 6542SOL     OW25939   5.699   3.930   0.952  0.1216  0.3802  0.5613
 6542SOL    HW225940   5.613   3.895   0.931 -0.3633  1.0163  1.4033
 6542SOL    HW325941   5.746   3.932   0.868 -0.6589 -0.0231  0.1053
 6542SOL    MW425942   5.694   3.925   0.938  0.2859 -0.6142 -0.0510
 6543SOL     OW25943   1.524   1.547   0.159  0.2033 -0.0872  0.4902
 6543SOL    HW225944   1.451   1.544   0.098  0.4124 -3.0985  0.2311
 6543SOL    HW325945   1.568   1.630   0.140 -1.4632  0.4534 -1.3456
 6543SOL    MW425946   1.520   1.557   0.148 -0.3749 -0.1422 -0.3607
 6544SOL     OW25947   3.227   1.787   5.052 -0.0186 -0.0681  0.3243
 6544SOL    HW225948   3.263   1.706   5.015  1.4529  0.2678  0.9463
 6544SOL    HW325949   3.284   1.856   5.017 -1.6388  0.8011 -0.7202
 6544SOL    MW425950   3.239   1.786   5.042  0.4908  0.1104 -0.7922
 6545SOL     OW25951   4.458   4.370   4.050  0.0587 -0.5472 -0.2023
 6545SOL    HW225952   4.367   4.395   4.064  0.6219  1.5205  0.1854
 6545SOL    HW325953   4.479   4.403   3.963  0.1916 -1.8257 -0.6656
 6545SOL    MW425954   4.449   4.378   4.041 -0.3618  0.1623  0.4214
 6546SOL     OW25955   1.513   4.806   5.067 -0.3792  0.4560 -0.5514
 6546SOL    HW225956   1.603   4.775   5.074  0.1413  2.0613  0.5639
 6546SOL    HW325957   1.488   4.826   5.157 -1.6971  0.4681 -0.9010
 6546SOL    MW425958   1.522   4.804   5.080  0.1191 -0.5662  0.2056
 6547SOL     OW25959   4.766   1.228   4.408 -0.1898 -0.3215  0.2416
 6547SOL    HW225960   4.723   1.194   4.485 -0.1549 -0.3574  0.2455
 6547SOL    HW325961   4.785   1.319   4.429  1.6588 -0.8487  1.0783
 6547SOL    MW425962   4.763   1.236   4.421 -0.1056 -0.3547  0.1036
 6548SOL     OW25963   1.435   6.194   0.467 -0.3204 -0.6664 -0.4024
 6548SOL    HW225964   1.381   6.257   0.419 -0.0736  1.2060  1.6111
 6548SOL    HW325965   1.386   6.112   0.463 -1.9737  0.3000 -0.9161
 6548SOL    MW425966   1.422   6.192   0.460 -0.0839 -0.0299  0.4296
 6549SOL     OW25967   0.546   2.377   4.022 -0.2390 -0.5777  0.6980
 6549SOL    HW225968   0.609   2.414   3.961  1.2842 -1.9034  1.3904
 6549SOL    HW325969   0.585   2.295   4.050 -1.9101 -1.0516  1.8021
 6549SOL    MW425970   0.559   2.371   4.018  0.1402  0.1396  0.5307
 6550SOL     OW25971   3.960   1.422   2.189 -0.2215 -0.9055 -0.0714
 6550SOL    HW225972   4.030   1.486   2.179 -0.9965 -0.1785 -1.0473
 6550SOL    HW325973   3.966   1.395   2.280  1.8212 -1.4701 -0.3199
 6550SOL    MW425974   3.970   1.427   2.200  0.0754  0.4211  0.3057
 6551SOL     OW25975   5.257   5.202   3.309  0.1955  0.3203 -0.1687
 6551SOL    HW225976   5.177   5.204   3.361  1.7439  1.1581  2.3600
 6551SOL    HW325977   5.258   5.115   3.270 -2.1482  0.4622 -0.7051
 6551SOL    MW425978   5.246   5.191   3.311  0.5343 -0.3585  0.4306
 6552SOL     OW25979   3.761   4.167   0.273  0.0311 -0.2537  0.2530
 6552SOL    HW225980   3.818   4.201   0.342 -1.2746  4.0501 -0.4693
 6552SOL    HW325981   3.674   4.164   0.315 -1.3478  4.9865 -1.4292
 6552SOL    MW425982   3.757   4.171   0.288  0.5538  0.4459  0.0318
 6553SOL     OW25983   1.445   3.247   2.662  0.3605 -0.0514 -0.2671
 6553SOL    HW225984   1.539   3.233   2.656  0.7845  1.4238  1.8725
 6553SOL    HW325985   1.418   3.197   2.740 -0.9936 -1.8165 -1.7553
 6553SOL    MW425986   1.454   3.239   2.672 -0.0416 -0.1709  0.0434
 6554SOL     OW25987   2.786   2.036   2.356  0.3319  0.1049 -0.0532
 6554SOL    HW225988   2.835   2.107   2.398 -0.9333 -0.3677  2.4515
 6554SOL    HW325989   2.722   2.079   2.300  1.0695  0.8412 -0.3412
 6554SOL    MW425990   2.784   2.051   2.354  0.5078  0.3387 -0.1925
 6555SOL     OW25991   1.169   2.387   5.264  0.1358 -0.2689 -0.0116
 6555SOL    HW225992   1.114   2.370   5.188 -0.2170 -0.3241  0.2537
 6555SOL    HW325993   1.215   2.468   5.242 -1.1396  0.5880  0.3531
 6555SOL    MW425994   1.168   2.396   5.251  0.4240  0.0030 -0.6801
 6556SOL     OW25995   4.956   2.635   3.433  0.2997  0.1003  0.3905
 6556SOL    HW225996   4.906   2.684   3.498 -0.4664  1.5091 -1.2086
 6556SOL    HW325997   4.908   2.552   3.424  1.0770 -0.6407  2.4102
 6556SOL    MW425998   4.943   2.630   3.441 -0.6923  0.0916  0.3780
 6557SOL     OW25999   1.789   1.970   1.439  0.0413 -0.1627  0.3041
 6557SOL    HW226000   1.729   2.030   1.395 -0.9168  0.4813  2.3675
 6557SOL    HW326001   1.860   1.957   1.377 -0.9912  1.0815 -1.2025
 6557SOL    MW426002   1.790   1.977   1.425  0.0710 -0.0454  0.1609
 6558SOL     OW26003   4.504   4.565   1.682  0.6634 -0.3235  0.6607
 6558SOL    HW226004   4.590   4.530   1.705  0.7963  0.3223  1.1817
 6558SOL    HW326005   4.459   4.575   1.766 -0.0623 -1.0104  0.3632
 6558SOL    MW426006   4.509   4.562   1.696 -0.2625 -0.1117  0.0683
 6559SOL     OW26007   5.946   2.325   5.148  0.4608  0.6380 -0.2723
 6559SOL    HW226008   5.998   2.299   5.224  0.9026  1.3058 -0.3433
 6559SOL    HW326009   5.984   2.275   5.075 -0.1302 -0.2019 -0.0231
 6559SOL    MW426010   5.958   2.315   5.148 -0.3916 -0.2287  0.3123
 6560SOL     OW26011   3.989   6.077   0.685 -0.2091 -0.5644 -0.4699
 6560SOL    HW226012   4.005   6.025   0.606  1.5143 -0.1430 -0.4593
 6560SOL    HW326013   4.072   6.125   0.699 -1.3277  1.3039  0.1587
 6560SOL    MW426014   4.002   6.077   0.677  0.9787 -0.4509  0.1279
 6561SOL     OW26015   3.734   4.136   0.636  0.1447  0.4859  0.3516
 6561SOL    HW226016   3.755   4.200   0.703  1.4086  0.6259 -0.1412
 6561SOL    HW326017   3.667   4.178   0.582 -0.2125  0.7305  0.9793
 6561SOL    MW426018   3.728   4.150   0.637 -0.4218 -0.0856  0.2996
 6562SOL     OW26019   1.569   0.018   1.555  0.3039 -0.0612 -0.5306
 6562SOL    HW226020   1.645   0.075   1.558  1.5179 -1.6376  1.3154
 6562SOL    HW326021   1.504   0.063   1.610  1.0883 -0.2111  0.5499
 6562SOL    MW426022   1.570   0.032   1.563 -0.0407  0.6346  0.0662
 6563SOL     OW26023   3.752   0.952   5.430  0.2822 -0.5213  0.3826
 6563SOL    HW226024   3.768   0.859   5.444  0.2001 -0.7550 -1.0173
 6563SOL    HW326025   3.656   0.960   5.433  0.3125 -0.3413  1.2487
 6563SOL    MW426026   3.741   0.941   5.433 -0.0752  0.1821  0.6630
 6564SOL     OW26027   3.404   3.767   4.071 -0.0918 -0.1693  0.0156
 6564SOL    HW226028   3.485   3.811   4.098 -0.5013 -0.5062  1.9430
 6564SOL    HW326029   3.334   3.822   4.106 -0.6717 -0.7589 -0.1909
 6564SOL    MW426030   3.406   3.780   4.079  0.2677  0.3240  0.4041
 6565SOL     OW26031   0.573   2.858   0.380 -0.5235  0.6029  0.0318
 6565SOL    HW226032   0.494   2.867   0.434  0.5092 -1.9673  2.2128
 6565SOL    HW326033   0.618   2.781   0.416  2.8276  1.7303 -1.3300
 6565SOL    MW426034   0.568   2.849   0.392  0.1750 -0.6038  1.0754
 6566SOL     OW26035   4.847   2.813   2.778 -0.7550  0.4591  0.2096
 6566SOL    HW226036   4.754   2.819   2.758 -1.1337 -2.3102  0.6806
 6566SOL    HW326037   4.890   2.800   2.694 -1.3000 -2.1122  0.2598
 6566SOL    MW426038   4.840   2.812   2.765  0.1948  0.0259 -0.4039
 6567SOL     OW26039   2.184   5.028   5.929  0.6890  0.5183  0.3223
 6567SOL    HW226040   2.162   4.966   5.859 -2.4748  1.1554  0.5802
 6567SOL    HW326041   2.224   5.102   5.883  2.2090 -0.6324 -0.2818
 6567SOL    MW426042   2.186   5.030   5.914 -0.4773  0.6311 -0.1535
 6568SOL     OW26043   3.902   5.913   2.593 -0.3082  0.1789  0.5852
 6568SOL    HW226044   3.846   5.935   2.667 -0.8698 -1.2654  0.6091
 6568SOL    HW326045   3.849   5.934   2.516 -0.2528  0.3544  0.5935
 6568SOL    MW426046   3.888   5.919   2.593  0.2508  0.4965 -0.2638
 6569SOL     OW26047   4.147   1.412   4.254  0.3704  0.6062  0.4286
 6569SOL    HW226048   4.240   1.397   4.234  0.6651  0.6036  1.7260
 6569SOL    HW326049   4.109   1.325   4.256 -0.0937  0.6865 -1.9136
 6569SOL    MW426050   4.155   1.399   4.251 -0.1966 -0.2556 -0.0322
 6570SOL     OW26051   4.694   4.253   2.185 -0.4190  0.1097 -0.3912
 6570SOL    HW226052   4.693   4.173   2.132 -2.0398 -0.3353  0.2526
 6570SOL    HW326053   4.605   4.288   2.178 -0.7002  0.0372  2.0077
 6570SOL    MW426054   4.682   4.247   2.177 -0.4089  0.4022  0.2635
 6571SOL     OW26055   4.213   4.700   4.415  0.0155 -0.1930  0.2326
 6571SOL    HW226056   4.137   4.669   4.366  1.4944  0.0753 -2.4405
 6571SOL    HW326057   4.208   4.795   4.409  0.4500 -0.1706  0.2102
 6571SOL    MW426058   4.202   4.708   4.408 -0.1539  0.2761  0.0306
 6572SOL     OW26059   3.857   0.809   3.629 -0.0412  0.2253 -0.2538
 6572SOL    HW226060   3.767   0.828   3.604 -0.5760 -1.5285  0.2742
 6572SOL    HW326061   3.867   0.849   3.715 -0.2620  0.5302 -0.3669
 6572SOL    MW426062   3.847   0.817   3.637 -0.0039 -0.2698 -0.2274
 6573SOL     OW26063   1.416   2.533   4.410 -0.0793 -0.3341 -0.0594
 6573SOL    HW226064   1.414   2.560   4.318 -0.6426 -1.1683 -0.2933
 6573SOL    HW326065   1.401   2.614   4.459 -2.1239 -0.2346 -0.7653
 6573SOL    MW426066   1.414   2.548   4.405  0.2094  0.4253 -0.5229
 6574SOL     OW26067   1.106   1.873   4.578  0.5756 -0.2868  0.1383
 6574SOL    HW226068   1.158   1.948   4.605  4.5845 -2.3803 -0.9813
 6574SOL    HW326069   1.095   1.883   4.484  0.3834 -0.6994  0.1090
 6574SOL    MW426070   1.111   1.884   4.569 -0.0131  0.4785  0.1575
 6575SOL     OW26071   2.978   2.128   1.855  0.3089  0.0609  0.1094
 6575SOL    HW226072   3.061   2.176   1.859 -0.5848  1.7371 -0.5066
 6575SOL    HW326073   2.971   2.085   1.941  1.7818 -0.0856  0.1823
 6575SOL    MW426074   2.988   2.128   1.867  0.1787 -0.4530  0.0456
 6576SOL     OW26075   3.995   4.803   4.751 -0.9344 -0.2479  0.2364
 6576SOL    HW226076   3.988   4.745   4.675 -1.5210  1.0952 -0.7847
 6576SOL    HW326077   4.089   4.809   4.768 -0.8373 -1.0813  0.0224
 6576SOL    MW426078   4.006   4.796   4.743  0.0273  0.0151 -0.1746
 6577SOL     OW26079   4.586   0.551   1.842  0.5536  0.1193 -0.2277
 6577SOL    HW226080   4.632   0.610   1.901  0.1172 -0.1288  0.3671
 6577SOL    HW326081   4.538   0.610   1.783 -0.9149  0.4038  1.1688
 6577SOL    MW426082   4.585   0.567   1.842  0.2617  0.1668 -0.0642
 6578SOL     OW26083   1.263   1.398   5.212  0.5492  0.1079  0.8546
 6578SOL    HW226084   1.261   1.393   5.117  3.1865 -1.4861  0.7924
 6578SOL    HW326085   1.232   1.486   5.232 -3.3108 -0.5358 -1.1822
 6578SOL    MW426086   1.259   1.409   5.202 -0.1490 -0.3546  0.0106
 6579SOL     OW26087   6.308   5.853   5.058  0.1873 -0.2824  0.6993
 6579SOL    HW226088   6.309   5.933   5.007  0.8547  0.0152  1.1609
 6579SOL    HW326089   6.368   5.794   5.013 -1.1429 -0.9526 -0.2738
 6579SOL    MW426090   6.316   5.856   5.046 -0.0552  0.7591  0.4223
 6580SOL     OW26091   6.313   0.018   4.043  0.2020 -0.1571  0.1520
 6580SOL    HW226092   6.249  -0.038   4.087  0.5956 -1.3604 -0.7643
 6580SOL    HW326093   6.364   0.056   4.115  0.5483 -1.7367  0.7830
 6580SOL    MW426094   6.312   0.016   4.058 -1.0180  0.5572  0.5229
 6581SOL     OW26095   3.824   2.543   3.847  0.6211  0.4282 -0.1023
 6581SOL    HW226096   3.796   2.600   3.775  0.8091  0.7551  0.0844
 6581SOL    HW326097   3.825   2.456   3.808 -0.4325  0.4398 -0.1863
 6581SOL    MW426098   3.820   2.539   3.832 -0.1335 -0.4592  0.1141
 6582SOL     OW26099   6.271   3.133   2.197  0.0278  0.6658  0.3030
 6582SOL    HW226100   6.242   3.127   2.107  0.7796  0.7355  0.0459
 6582SOL    HW326101   6.225   3.209   2.232 -0.3636  0.5607  0.0214
 6582SOL    MW426102   6.261   3.142   2.190 -0.0665 -0.8320  0.0539
 6583SOL     OW26103   1.147   3.064   1.250  0.1024 -0.2893 -0.1315
 6583SOL    HW226104   1.052   3.075   1.251  0.3480  2.7763 -0.8466
 6583SOL    HW326105   1.177   3.106   1.330  0.8785 -1.4359  0.2056
 6583SOL    MW426106   1.138   3.071   1.260  0.3901 -0.3083  0.5648
 6584SOL     OW26107   2.004   1.375   1.308 -0.2477  0.0576  0.5860
 6584SOL    HW226108   2.022   1.469   1.300 -0.8448  0.1135 -0.1460
 6584SOL    HW326109   1.920   1.370   1.355  0.3539 -0.1481  1.6818
 6584SOL    MW426110   1.995   1.387   1.313  0.3213 -0.2485 -0.1733
 6585SOL     OW26111   5.514   0.235   1.964  0.0855 -0.2336 -0.0365
 6585SOL    HW226112   5.565   0.162   1.930  0.2383  0.3208 -1.0698
 6585SOL    HW326113   5.501   0.291   1.887 -1.6263 -0.1079  0.3166
 6585SOL    MW426114   5.519   0.233   1.949 -0.1442  0.1387  0.0642
 6586SOL     OW26115   2.852   2.410   3.356 -0.8622  0.4217  0.0221
 6586SOL    HW226116   2.936   2.432   3.398  0.8547  0.8268 -3.3266
 6586SOL    HW326117   2.793   2.480   3.383  0.5607  1.4781  0.5378
 6586SOL    MW426118   2.855   2.422   3.365  0.4336 -0.0916 -0.3255
 6587SOL     OW26119   3.595   5.237   0.814  0.6044 -0.4514 -0.1177
 6587SOL    HW226120   3.564   5.232   0.904 -0.5718  1.4566 -0.3706
 6587SOL    HW326121   3.538   5.177   0.765 -0.1034  0.0622  0.0732
 6587SOL    MW426122   3.584   5.228   0.819 -0.0275  0.6448 -0.7626
 6588SOL     OW26123   6.281   2.847   1.274  0.2788 -0.3931 -0.4657
 6588SOL    HW226124   6.194   2.854   1.233  0.1498 -0.7503 -0.2573
 6588SOL    HW326125   6.329   2.923   1.240 -0.2670  0.0762 -0.2152
 6588SOL    MW426126   6.276   2.858   1.264 -1.1173  0.7392 -0.1849
 6589SOL     OW26127   4.131   1.204   0.041  0.1165  0.0721 -0.2265
 6589SOL    HW226128   4.055   1.245   0.081 -0.6085 -1.1141 -0.3425
 6589SOL    HW326129   4.206   1.253   0.076 -0.6208  0.4551  0.8759
 6589SOL    MW426130   4.131   1.216   0.051  0.6334  0.1286  0.2391
 6590SOL     OW26131   2.511   0.867   0.071 -0.1571  0.1471 -0.1140
 6590SOL    HW226132   2.434   0.901   0.026 -0.4722 -0.6546 -0.1860
 6590SOL    HW326133   2.563   0.945   0.092 -0.9339  0.6827 -0.1572
 6590SOL    MW426134   2.508   0.882   0.068 -0.7450  0.1114 -0.1674
 6591SOL     OW26135   5.859   4.967   2.221 -0.1245  0.6379  0.1966
 6591SOL    HW226136   5.785   4.923   2.178  1.4931 -1.3692 -0.6558
 6591SOL    HW326137   5.920   4.987   2.149  1.1901  0.1684  1.1534
 6591SOL    MW426138   5.857   4.964   2.206 -0.2119  0.1267 -0.0520
 6592SOL     OW26139   3.581   2.874   4.964  0.2161 -0.1788 -0.2023
 6592SOL    HW226140   3.497   2.921   4.962  0.0038 -0.5569 -0.4037
 6592SOL    HW326141   3.575   2.813   4.890  1.2190  0.7302 -1.0520
 6592SOL    MW426142   3.569   2.872   4.954 -0.2055 -0.3284  0.2974
 6593SOL     OW26143   4.273   2.083   3.618 -0.5454 -0.5299  0.6581
 6593SOL    HW226144   4.186   2.118   3.638 -0.2661  1.5125 -1.2206
 6593SOL    HW326145   4.321   2.089   3.700 -1.0972  2.0160  0.8810
 6593SOL    MW426146   4.268   2.089   3.631  0.1078  0.3617  0.4635
 6594SOL     OW26147   5.661   5.122   4.473 -0.5044 -0.4388  0.1304
 6594SOL    HW226148   5.634   5.125   4.381  1.2655  1.5822 -0.4253
 6594SOL    HW326149   5.650   5.031   4.499  0.5226 -1.4384 -2.6134
 6594SOL    MW426150   5.656   5.110   4.464  0.4593 -0.6393 -0.8530
 6595SOL     OW26151   3.071   5.651   1.110  0.1180 -0.0544 -0.0951
 6595SOL    HW226152   3.014   5.712   1.156  1.0543  0.3355  0.5873
 6595SOL    HW326153   3.095   5.697   1.029 -0.9640 -0.4515 -0.6563
 6595SOL    MW426154   3.067   5.665   1.105 -0.3382  0.2848  0.3378
 6596SOL     OW26155   1.670   4.492   4.345  0.0122 -0.2730 -0.0010
 6596SOL    HW226156   1.636   4.555   4.409  0.4427 -1.5613  1.5584
 6596SOL    HW326157   1.710   4.423   4.398 -0.2550 -1.7679 -1.6583
 6596SOL    MW426158   1.671   4.491   4.360 -0.2656 -0.3432  0.5762
 6597SOL     OW26159   3.945   2.262   0.780  0.3996  0.5644  0.0654
 6597SOL    HW226160   3.985   2.349   0.778 -0.4719  0.9781  0.1563
 6597SOL    HW326161   3.874   2.266   0.717 -0.6484  0.4339  1.1871
 6597SOL    MW426162   3.941   2.274   0.772 -0.2831  0.3851  0.5138
 6598SOL     OW26163   2.496   4.833   0.214 -0.0689 -0.6181  0.4796
 6598SOL    HW226164   2.515   4.803   0.302 -1.4193 -0.5338  0.8168
 6598SOL    HW326165   2.461   4.921   0.225 -0.0527 -0.5224 -0.1588
 6598SOL    MW426166   2.494   4.840   0.227 -0.0172  0.6980  0.9815
 6599SOL     OW26167   1.764   4.698   4.973  0.4016  0.0642  0.1893
 6599SOL    HW226168   1.720   4.706   4.888 -2.4403  2.1012  1.6847
 6599SOL    HW326169   1.788   4.605   4.978 -1.2947 -0.5914 -1.9495
 6599SOL    MW426170   1.761   4.687   4.962 -0.0885 -0.5205  0.1461
 6600SOL     OW26171   1.362   1.045   2.806 -0.2670  0.1308  0.1878
 6600SOL    HW226172   1.303   1.083   2.871 -2.5635 -0.8401 -1.1758
 6600SOL    HW326173   1.418   0.986   2.855  1.3640  2.8676  1.9022
 6600SOL    MW426174   1.362   1.042   2.821  0.2760 -0.0027 -0.1203
 6601SOL     OW26175   5.306   4.518   2.153 -0.1464  0.5582 -0.4422
 6601SOL    HW226176   5.363   4.441   2.153 -0.7313  0.1121 -0.8375
 6601SOL    HW326177   5.294   4.540   2.246  1.1125  1.0041 -0.3737
 6601SOL    MW426178   5.312   4.511   2.165 -0.5660 -0.3632 -0.4399
 6602SOL     OW26179   4.492   3.123   0.092  0.0698 -0.4728 -0.1161
 6602SOL    HW226180   4.499   3.115  -0.003  0.9022  1.1444 -0.2274
 6602SOL    HW326181   4.460   3.212   0.107 -2.2858 -1.4242  1.0890
 6602SOL    MW426182   4.489   3.133   0.082 -0.2870  0.2291  0.2901
 6603SOL     OW26183   5.603   1.659   5.385  0.0460  0.0880 -0.4188
 6603SOL    HW226184   5.652   1.625   5.310  0.4264 -1.2028  0.3979
 6603SOL    HW326185   5.670   1.694   5.444  0.1139 -2.2636  0.9990
 6603SOL    MW426186   5.618   1.659   5.383 -0.2214  0.1212  0.1189
 6604SOL     OW26187   5.465   4.799   2.905 -0.4177  0.4539  0.6156
 6604SOL    HW226188   5.541   4.855   2.891  0.5066 -0.9506 -0.2510
 6604SOL    HW326189   5.500   4.710   2.904 -2.1686 -0.2800 -0.5947
 6604SOL    MW426190   5.480   4.795   2.903 -0.1592 -0.1051 -0.0362
 6605SOL     OW26191   3.671   5.852   0.684 -0.1376 -0.1965 -0.2889
 6605SOL    HW226192   3.647   5.932   0.730 -0.8124 -0.3082 -0.4425
 6605SOL    HW326193   3.690   5.881   0.594 -1.3514 -0.3277 -0.6119
 6605SOL    MW426194   3.670   5.867   0.678  0.9943  0.4029 -0.0571
 6606SOL     OW26195   1.824   4.248   6.330 -0.6512  0.1219  0.3435
 6606SOL    HW226196   1.880   4.307   6.381 -0.8723  0.0916  0.6245
 6606SOL    HW326197   1.859   4.253   6.241  1.8364 -2.3189  1.0511
 6606SOL    MW426198   1.836   4.257   6.325  0.3208 -0.0935  0.7012
 6607SOL     OW26199   2.661   5.098   3.367 -0.1769  0.4910 -0.4834
 6607SOL    HW226200   2.604   5.168   3.399 -2.8948  0.0261 -3.6959
 6607SOL    HW326201   2.616   5.018   3.395 -0.2836  0.1023 -1.7242
 6607SOL    MW426202   2.647   5.096   3.375 -0.2807  0.1639  0.0751
 6608SOL     OW26203   2.481   2.892   5.724 -0.1323  0.2222 -0.6317
 6608SOL    HW226204   2.506   2.944   5.800 -0.5846  0.6511 -0.7681
 6608SOL    HW326205   2.434   2.954   5.668 -0.6121 -0.3175 -0.8321
 6608SOL    MW426206   2.478   2.907   5.727  0.6079 -0.3468  0.2510
 6609SOL     OW26207   1.406   0.775   0.230  0.1223  0.1247  0.0786
 6609SOL    HW226208   1.335   0.838   0.238  0.1344  0.4019 -1.5455
 6609SOL    HW326209   1.485   0.825   0.250 -0.1318 -0.3955  2.7807
 6609SOL    MW426210   1.407   0.790   0.233 -0.3127 -0.1612 -0.3448
 6610SOL     OW26211   6.180   0.195   5.342 -0.2658 -0.3331 -0.9817
 6610SOL    HW226212   6.260   0.207   5.291  0.5956  0.1784  0.4141
 6610SOL    HW326213   6.166   0.100   5.342  0.3771 -0.4389 -1.2035
 6610SOL    MW426214   6.189   0.184   5.335  0.8613  0.3084  0.4989
 6611SOL     OW26215   2.831   5.410   2.750  0.3731 -0.2951  0.4714
 6611SOL    HW226216   2.807   5.474   2.684  1.1996 -0.5170 -0.0586
 6611SOL    HW326217   2.832   5.459   2.832  1.9820  0.6301 -0.0610
 6611SOL    MW426218   2.828   5.425   2.752 -0.2949  0.1348  0.7186
 6612SOL     OW26219   4.361   1.336   5.717 -0.7039 -0.6053 -0.2070
 6612SOL    HW226220   4.350   1.253   5.764  2.6177 -0.2523  1.5116
 6612SOL    HW326221   4.375   1.311   5.626 -2.4337 -1.6694 -0.2238
 6612SOL    MW426222   4.361   1.322   5.712  0.2465 -0.2389  0.2343
 6613SOL     OW26223   0.143   3.587   0.972  0.0158  0.6195 -0.0304
 6613SOL    HW226224   0.224   3.617   0.932 -0.8302  2.0614 -0.7222
 6613SOL    HW326225   0.100   3.537   0.903 -1.0711  2.4328 -0.7232
 6613SOL    MW426226   0.148   3.584   0.958 -0.5602  0.5529  0.0782
 6614SOL     OW26227   3.205   3.831   2.945 -0.3287 -0.2904  0.4457
 6614SOL    HW226228   3.234   3.922   2.952  0.7746 -0.6261  0.4583
 6614SOL    HW326229   3.279   3.786   2.903 -0.9280 -1.1464  0.2944
 6614SOL    MW426230   3.219   3.837   2.941  0.0791 -0.1511  0.5312
 6615SOL     OW26231   3.078   4.612   4.194 -0.1948  0.0415 -0.1318
 6615SOL    HW226232   3.112   4.641   4.278 -0.8660 -0.7669  0.4353
 6615SOL    HW326233   3.055   4.693   4.148 -0.6596  0.4683  0.8244
 6615SOL    MW426234   3.079   4.627   4.199  0.3411 -0.3651  0.6234
 6616SOL     OW26235   2.958   4.168   5.310 -0.2221  0.0990  0.6106
 6616SOL    HW226236   3.050   4.194   5.302 -0.4596  0.4364 -1.8555
 6616SOL    HW326237   2.912   4.249   5.332 -0.1756  0.4223 -0.4413
 6616SOL    MW426238   2.964   4.182   5.312 -0.0454  0.2425  0.2519
 6617SOL     OW26239   4.399   1.970   3.000 -0.4864  0.3341  0.5391
 6617SOL    HW226240   4.405   1.912   3.075  2.4264 -1.3648 -0.8400
 6617SOL    HW326241   4.445   2.049   3.028  1.8802 -0.8361  0.1914
 6617SOL    MW426242   4.406   1.973   3.014  0.0514 -0.3662 -0.7276
 6618SOL     OW26243   6.244   0.403   3.544 -0.4990  0.6972  0.1295
 6618SOL    HW226244   6.203   0.423   3.628 -0.6936  1.2115 -0.0812
 6618SOL    HW326245   6.337   0.421   3.557 -0.7048  2.0354 -0.1260
 6618SOL    MW426246   6.251   0.408   3.556 -0.0087 -0.2769 -0.0327
 6619SOL     OW26247   1.615   0.286   0.174  0.6637 -0.0913  0.0413
 6619SOL    HW226248   1.531   0.327   0.195  1.4606  0.7278  1.8056
 6619SOL    HW326249   1.599   0.242   0.090 -1.9949 -1.3042  1.0376
 6619SOL    MW426250   1.602   0.285   0.165 -0.3283  0.0595  0.8228
 6620SOL     OW26251   6.406   1.898   2.098  0.3345  0.4735 -0.2812
 6620SOL    HW226252   6.434   1.955   2.169  0.8919  0.1985 -0.2718
 6620SOL    HW326253   6.482   1.843   2.080  0.7537  1.5427 -2.1055
 6620SOL    MW426254   6.420   1.899   2.105 -0.4398  0.2585 -0.1533
 6621SOL     OW26255   0.164   3.943   1.987  0.2814  0.2176  0.2308
 6621SOL    HW226256   0.132   3.994   2.062  2.1399 -0.5572  1.6431
 6621SOL    HW326257   0.182   3.856   2.024  3.6676  0.5123 -0.4184
 6621SOL    MW426258   0.162   3.938   2.002  0.3597  0.2496  0.6816
 6622SOL     OW26259   3.483   3.032   2.791 -0.4232  0.3879  0.4470
 6622SOL    HW226260   3.457   3.124   2.794 -3.3934 -0.3492  0.4387
 6622SOL    HW326261   3.522   3.015   2.876  1.8690  2.0269 -0.1796
 6622SOL    MW426262   3.485   3.042   2.802  0.3319  0.5116  0.0399
 6623SOL     OW26263   1.706   1.330   5.993  0.4058  0.4888 -0.2018
 6623SOL    HW226264   1.797   1.304   5.977  1.1079  2.1476  0.7044
 6623SOL    HW326265   1.657   1.249   5.993  2.2788 -0.7489  1.5611
 6623SOL    MW426266   1.712   1.316   5.991 -0.0336  0.7223  0.5741
 6624SOL     OW26267   6.075   2.100   0.574  0.2407 -0.1434 -0.0580
 6624SOL    HW226268   6.015   2.136   0.639  0.3198  0.3426 -0.2539
 6624SOL    HW326269   6.018   2.078   0.500  0.0311 -1.4069  0.4440
 6624SOL    MW426270   6.059   2.102   0.573 -0.0662 -0.3978  0.1032
 6625SOL     OW26271   4.879   3.955   5.569  0.6105 -0.1801  0.4074
 6625SOL    HW226272   4.870   3.865   5.599  0.3341  0.0077  0.8836
 6625SOL    HW326273   4.789   3.984   5.554  0.7544 -0.6030 -1.6116
 6625SOL    MW426274   4.866   3.947   5.571 -0.3073  0.6519  0.0804
 6626SOL     OW26275   3.448   0.392   4.110 -0.0189 -0.4011  0.2997
 6626SOL    HW226276   3.534   0.416   4.144 -0.3123  1.3037 -0.0536
 6626SOL    HW326277   3.406   0.476   4.090 -1.5333 -1.2153 -0.1044
 6626SOL    MW426278   3.454   0.406   4.112  0.3072  0.3349 -0.1058
 6627SOL     OW26279   4.198   6.083   5.988 -0.1372  0.2971  0.2108
 6627SOL    HW226280   4.246   6.088   6.071  2.6359  0.8758 -1.3041
 6627SOL    HW326281   4.117   6.130   6.004 -0.2681 -0.6623  2.9220
 6627SOL    MW426282   4.194   6.090   6.001 -0.1971  0.2724 -0.6773
 6628SOL     OW26283   1.873   4.878   6.352 -0.0236 -0.0087 -0.0802
 6628SOL    HW226284   1.909   4.910   6.269  0.6404 -0.9989 -0.1926
 6628SOL    HW326285   1.944   4.828   6.391 -1.2704 -2.1029 -0.3538
 6628SOL    MW426286   1.887   4.876   6.346 -0.0163 -0.0911 -0.3678
 6629SOL     OW26287   1.563   2.910   5.561  0.1752 -0.2916  0.2886
 6629SOL    HW226288   1.488   2.967   5.542  0.0122 -0.8600 -0.8675
 6629SOL    HW326289   1.546   2.831   5.509  1.5441 -0.4586  0.0762
 6629SOL    MW426290   1.551   2.907   5.551  0.0151 -0.0314  0.1830
 6630SOL     OW26291   6.417   3.520   3.665 -0.2005 -0.0949  0.4574
 6630SOL    HW226292   6.419   3.603   3.712 -0.1629 -0.7408  1.6314
 6630SOL    HW326293   6.438   3.454   3.731  0.0359 -1.0207 -0.5109
 6630SOL    MW426294   6.420   3.522   3.680  0.3057 -0.8809 -0.0646
 6631SOL     OW26295   3.380   0.927   6.000  0.9314  0.4703  0.0044
 6631SOL    HW226296   3.411   0.962   6.083  0.9803 -0.2289  0.2844
 6631SOL    HW326297   3.429   0.845   5.988 -0.2122 -0.2380  0.0562
 6631SOL    MW426298   3.391   0.921   6.009 -0.5079  0.1282  0.4092
 6632SOL     OW26299   0.312   0.563   0.298  0.1320  0.1458 -0.3345
 6632SOL    HW226300   0.266   0.497   0.246  2.6550 -2.8646  0.9502
 6632SOL    HW326301   0.322   0.637   0.239 -0.3852 -1.6723 -2.8574
 6632SOL    MW426302   0.307   0.564   0.283 -0.3506 -0.2825  0.3565
 6633SOL     OW26303   5.913   3.666   4.022 -0.2115  0.1158 -0.8624
 6633SOL    HW226304   5.885   3.727   4.090  0.4087  0.2890 -0.7593
 6633SOL    HW326305   5.900   3.579   4.061  0.6811  0.2273 -0.3000
 6633SOL    MW426306   5.908   3.662   4.036  0.2500  0.1511  0.6658
 6634SOL     OW26307   2.270   0.862   1.562 -0.0455  0.7523 -0.0746
 6634SOL    HW226308   2.188   0.908   1.543 -0.3495  1.3867  2.3829
 6634SOL    HW326309   2.339   0.918   1.527 -0.5976  0.6821 -1.3216
 6634SOL    MW426310   2.268   0.875   1.555  1.4633  0.3050  0.1652
 6635SOL     OW26311   0.620   0.430   0.222 -0.1926 -0.2433 -0.3574
 6635SOL    HW226312   0.635   0.364   0.155 -0.5366 -2.0426  1.2437
 6635SOL    HW326313   0.525   0.426   0.238  0.1228 -1.3503  1.6016
 6635SOL    MW426314   0.609   0.421   0.215  0.2048 -0.0135 -0.4478
 6636SOL     OW26315   5.417   3.056   5.480  0.4408 -0.9144  0.0726
 6636SOL    HW226316   5.467   3.074   5.560 -0.0334 -1.5313  0.5241
 6636SOL    HW326317   5.461   3.105   5.412 -0.2850  1.2089  1.0533
 6636SOL    MW426318   5.429   3.065   5.482 -0.2391 -0.0593  0.3853
 6637SOL     OW26319   0.238   2.311   0.874  0.5078 -0.0574  0.3172
 6637SOL    HW226320   0.191   2.237   0.912  1.2102  0.4264  2.2568
 6637SOL    HW326321   0.191   2.330   0.793 -2.1936 -0.0907  1.7368
 6637SOL    MW426322   0.225   2.304   0.868  0.3594  1.1307  0.4225
 6638SOL     OW26323   6.269   0.400   1.124 -0.4367 -0.6594  0.3447
 6638SOL    HW226324   6.331   0.370   1.191  0.4184  0.0915 -0.0973
 6638SOL    HW326325   6.260   0.494   1.140  1.5500  0.0187 -1.9561
 6638SOL    MW426326   6.276   0.408   1.135  0.2658  0.8417  0.0815
 6639SOL     OW26327   0.546   6.087   4.379  0.4678 -0.0473 -0.1898
 6639SOL    HW226328   0.481   6.124   4.319 -1.7327 -0.5855  1.7277
 6639SOL    HW326329   0.552   5.995   4.354  1.7586  0.3316 -1.3880
 6639SOL    MW426330   0.538   6.080   4.368 -0.0024 -0.7128  0.1882
 6640SOL     OW26331   3.193   4.976   4.980 -0.4128 -0.1828  0.0017
 6640SOL    HW226332   3.138   4.919   5.034 -1.1978  2.3527  2.1174
 6640SOL    HW326333   3.277   4.978   5.026  0.0892 -0.7187 -0.8688
 6640SOL    MW426334   3.197   4.969   4.993  0.3007  0.0559 -0.2300
 6641SOL     OW26335   1.554   4.967   5.934 -0.0532  0.4805 -0.3123
 6641SOL    HW226336   1.648   4.976   5.944 -0.0543  1.0877 -0.7544
 6641SOL    HW326337   1.540   4.874   5.915  0.3042  0.0876  1.1818
 6641SOL    MW426338   1.564   4.956   5.933  0.4488  0.2228  0.3674
 6642SOL     OW26339   3.338   5.589   5.992 -0.0990 -0.1488  0.0479
 6642SOL    HW226340   3.309   5.547   5.911  1.1404  0.1347 -0.5542
 6642SOL    HW326341   3.316   5.526   6.061 -2.2215  0.0909 -0.3437
 6642SOL    MW426342   3.331   5.575   5.991 -0.6077 -0.5432  0.1511
 6643SOL     OW26343   3.296   2.841   3.890 -0.2474 -0.1403 -0.3915
 6643SOL    HW226344   3.385   2.815   3.867 -0.6237 -0.9975 -0.9416
 6643SOL    HW326345   3.265   2.771   3.948 -0.2201  0.6615  0.5925
 6643SOL    MW426346   3.303   2.828   3.894  0.5530  0.3040 -0.5986
 6644SOL     OW26347   5.341   5.087   5.087 -0.1577 -0.2666  0.4009
 6644SOL    HW226348   5.412   5.054   5.144  1.8199 -0.1965 -1.8457
 6644SOL    HW326349   5.380   5.161   5.041 -1.4650 -0.6227 -1.3904
 6644SOL    MW426350   5.356   5.092   5.089  0.1026 -0.2648 -0.0119
 6645SOL     OW26351   1.374   0.511   5.630  0.2364 -0.6005 -0.4586
 6645SOL    HW226352   1.425   0.512   5.549 -0.7549 -0.6445 -1.1072
 6645SOL    HW326353   1.290   0.551   5.606 -0.6880 -2.0771  0.1260
 6645SOL    MW426354   1.370   0.516   5.616  0.5759 -0.2558  0.2020
 6646SOL     OW26355   3.570   5.601   3.628  0.2412 -0.2850 -0.4632
 6646SOL    HW226356   3.584   5.682   3.579 -1.4141  0.0105 -0.5015
 6646SOL    HW326357   3.538   5.630   3.714  0.1480 -0.8897 -0.2871
 6646SOL    MW426358   3.568   5.615   3.633  0.3011  0.1752 -0.2472
 6647SOL     OW26359   5.922   6.251   5.571 -0.5971  0.7363 -0.2219
 6647SOL    HW226360   5.923   6.339   5.609  0.6420  0.4539  0.4684
 6647SOL    HW326361   6.010   6.216   5.590 -1.7241 -1.4501  1.3894
 6647SOL    MW426362   5.934   6.258   5.578 -0.1560  0.1979  0.7428
 6648SOL     OW26363   3.293   0.133   4.524 -0.2108 -0.0924  0.1665
 6648SOL    HW226364   3.311   0.045   4.491 -1.2651 -0.3205  0.1766
 6648SOL    HW326365   3.289   0.188   4.446  0.0216 -0.1297  0.1283
 6648SOL    MW426366   3.295   0.129   4.510 -0.3638 -0.3196  0.1655
 6649SOL     OW26367   5.259   3.174   6.174  0.8248  0.2624 -0.1805
 6649SOL    HW226368   5.174   3.148   6.138  0.0534  1.8933  0.3659
 6649SOL    HW326369   5.267   3.126   6.256 -0.2246  1.1409  0.4511
 6649SOL    MW426370   5.249   3.164   6.180  0.5049 -0.3142  0.6384
 6650SOL     OW26371   1.431   3.340   6.048 -0.1807  0.1422  0.2285
 6650SOL    HW226372   1.410   3.297   5.965 -0.3300 -0.1359  0.4065
 6650SOL    HW326373   1.520   3.312   6.068 -0.4556 -0.4913  0.5910
 6650SOL    MW426374   1.440   3.331   6.040  0.3731 -0.5646  0.0744
 6651SOL     OW26375   4.550   2.917   2.267 -0.3750 -1.0233 -0.4923
 6651SOL    HW226376   4.459   2.902   2.242 -0.1681  1.4495 -3.3740
 6651SOL    HW326377   4.601   2.891   2.190  1.0391  0.4414 -0.1175
 6651SOL    MW426378   4.545   2.912   2.254 -0.3084 -0.0196  0.0228
 6652SOL     OW26379   3.834   1.812   2.494 -0.5311  0.6609 -0.0331
 6652SOL    HW226380   3.789   1.738   2.454  0.8519  1.0008 -2.4582
 6652SOL    HW326381   3.884   1.774   2.566 -2.4538 -0.1385  0.9650
 6652SOL    MW426382   3.835   1.797   2.498  0.2496  0.3530 -0.0033
 6653SOL     OW26383   0.389   1.222   1.931  0.2692  0.1773 -0.1783
 6653SOL    HW226384   0.343   1.212   1.847  0.4756 -0.5562 -0.2117
 6653SOL    HW326385   0.472   1.265   1.908  0.6872 -0.7569 -0.4824
 6653SOL    MW426386   0.394   1.226   1.917 -0.0531 -0.1535  1.1544
 6654SOL     OW26387   5.391   5.111   1.074 -0.0799  0.0818 -0.1489
 6654SOL    HW226388   5.452   5.110   1.148 -0.9267 -0.8230  0.5672
 6654SOL    HW326389   5.440   5.150   1.003  0.2164  2.6269  1.3503
 6654SOL    MW426390   5.405   5.116   1.075  0.1449  0.0509 -0.5728
 6655SOL     OW26391   2.436   4.271   2.752 -0.0385 -0.0036 -0.2000
 6655SOL    HW226392   2.421   4.363   2.729  1.9894  0.4710  0.2325
 6655SOL    HW326393   2.427   4.269   2.848  1.7017  0.1420 -0.0125
 6655SOL    MW426394   2.433   4.283   2.762 -0.3927  0.4807 -0.0205
 6656SOL     OW26395   1.139   2.333   3.264  0.5382 -0.6574 -0.4183
 6656SOL    HW226396   1.208   2.351   3.199  1.4677  0.8111  0.9057
 6656SOL    HW326397   1.185   2.290   3.336  0.1668  0.6007  0.6059
 6656SOL    MW426398   1.154   2.330   3.265 -0.3116  0.2694 -0.2638
 6657SOL     OW26399   2.723   3.846   5.376  0.0654  0.3207 -0.0216
 6657SOL    HW226400   2.648   3.817   5.324  0.1683  0.7846 -0.4398
 6657SOL    HW326401   2.800   3.818   5.325  0.1667  1.7914 -0.7241
 6657SOL    MW426402   2.723   3.838   5.362 -0.3437 -0.0714  0.0389
 6658SOL     OW26403   2.134   0.214   5.022  0.4639 -0.1379  0.1088
 6658SOL    HW226404   2.164   0.303   5.006 -2.2323  0.9337  0.5185
 6658SOL    HW326405   2.066   0.199   4.956  0.4703 -1.6796  0.4135
 6658SOL    MW426406   2.129   0.224   5.011  0.3295 -0.4219 -0.4852
 6659SOL     OW26407   0.328   3.877   0.804  0.1746  0.2478 -0.1154
 6659SOL    HW226408   0.335   3.782   0.811  0.1774  0.3357  1.3166
 6659SOL    HW326409   0.250   3.899   0.854  0.9522  1.1079  0.7767
 6659SOL    MW426410   0.319   3.868   0.811  0.2826 -0.6868 -0.1972
 6660SOL     OW26411   1.666   6.361   5.186 -0.4499 -0.0258 -0.0558
 6660SOL    HW226412   1.739   6.420   5.205  0.3289 -0.2561 -2.1026
 6660SOL    HW326413   1.590   6.419   5.181 -0.4575  0.2280  2.0218
 6660SOL    MW426414   1.666   6.377   5.188 -0.1243 -0.0537 -0.3807
 6661SOL     OW26415   3.651   5.704   1.928  0.1161 -0.3212 -0.3468
 6661SOL    HW226416   3.719   5.636   1.928  0.1076 -0.3407 -1.1869
 6661SOL    HW326417   3.669   5.755   1.848  1.5648  2.1161  1.3730
 6661SOL    MW426418   3.663   5.702   1.917 -0.1639 -0.1730 -0.0052
 6662SOL     OW26419   1.727   3.383   0.795  0.1001  0.1941 -0.1232
 6662SOL    HW226420   1.818   3.354   0.792  0.1064  0.1804  0.1611
 6662SOL    HW326421   1.677   3.303   0.812  0.1488  0.3875  1.0364
 6662SOL    MW426422   1.732   3.369   0.797  0.8399  0.0996 -0.3090
 6663SOL     OW26423   0.894   4.512   2.672 -0.7491  0.2445  0.3881
 6663SOL    HW226424   0.834   4.561   2.616 -1.1746 -0.8291 -0.1208
 6663SOL    HW326425   0.854   4.426   2.682 -0.6401  0.3632  2.2834
 6663SOL    MW426426   0.881   4.507   2.666  0.3943 -0.6578  0.3637
 6664SOL     OW26427   5.647   2.001   5.047  0.3028  0.0491  0.2351
 6664SOL    HW226428   5.681   1.921   5.006  1.7870  0.8500 -0.1407
 6664SOL    HW326429   5.599   2.045   4.976 -1.7797 -1.1481  0.8012
 6664SOL    MW426430   5.645   1.996   5.032  1.0535  0.1015 -0.3671
 6665SOL     OW26431   2.207   5.797   0.030 -0.1076 -0.2186  0.1623
 6665SOL    HW226432   2.259   5.818  -0.047  0.2305 -2.2235 -0.2000
 6665SOL    HW326433   2.121   5.773  -0.005  0.0009 -0.9880  0.4132
 6665SOL    MW426434   2.202   5.797   0.016  0.1368 -0.3508  0.7345
 6666SOL     OW26435   0.822   2.913   2.263  0.3346  0.1527  0.3338
 6666SOL    HW226436   0.815   3.008   2.273 -1.3551  0.1701 -0.6131
 6666SOL    HW326437   0.839   2.899   2.170 -2.8692 -0.5027 -0.2834
 6666SOL    MW426438   0.824   2.923   2.252  0.0268  0.8805  0.2786
 6667SOL     OW26439   0.044   3.516   5.291 -0.0544 -0.0017 -0.3551
 6667SOL    HW226440   0.131   3.477   5.293  0.0218  0.1543  1.3067
 6667SOL    HW326441   0.025   3.535   5.383 -3.0364 -2.7464 -0.1975
 6667SOL    MW426442   0.053   3.513   5.304 -0.2536 -0.6517  0.0086
 6668SOL     OW26443   1.371   1.939   0.752 -0.5519  0.0637  1.1669
 6668SOL    HW226444   1.417   1.987   0.683  1.7028  0.7786  3.0438
 6668SOL    HW326445   1.278   1.955   0.735  0.0231  2.5934 -0.0416
 6668SOL    MW426446   1.365   1.947   0.741  0.0560 -0.1343  0.3752
 6669SOL     OW26447   2.964   2.328   1.559 -0.2445  0.0716 -0.0496
 6669SOL    HW226448   3.035   2.293   1.613  0.2126  0.4071 -0.4170
 6669SOL    HW326449   2.924   2.251   1.519  0.3847 -0.0798 -0.4056
 6669SOL    MW426450   2.968   2.313   1.561  0.0958  0.3833 -0.0868
 6670SOL     OW26451   5.205   1.065   5.607  0.1919 -0.0670  0.3028
 6670SOL    HW226452   5.170   1.148   5.572 -1.2937 -1.0641 -0.6943
 6670SOL    HW326453   5.272   1.039   5.544 -0.8179 -0.6471 -0.5798
 6670SOL    MW426454   5.209   1.073   5.594  0.2403  0.5421  0.8591
 6671SOL     OW26455   4.901   3.276   3.891 -0.5886 -0.2986  0.1799
 6671SOL    HW226456   4.944   3.312   3.814  0.5971  0.6117  1.2208
 6671SOL    HW326457   4.887   3.183   3.870  0.8512 -0.3491 -0.6449
 6671SOL    MW426458   4.905   3.268   3.878 -0.2492  0.3339 -0.2637
 6672SOL     OW26459   6.406   3.196   6.210 -0.4425 -0.0120  0.0356
 6672SOL    HW226460   6.344   3.135   6.171 -0.9231  0.4500  0.0611
 6672SOL    HW326461   6.362   3.281   6.206  0.2528  0.3510 -0.0833
 6672SOL    MW426462   6.392   3.199   6.204 -0.2117 -0.4450  0.2794
 6673SOL     OW26463   0.031   4.542   4.475 -0.2002 -0.9300 -0.5986
 6673SOL    HW226464   0.122   4.514   4.468 -0.3948 -2.0678  0.8220
 6673SOL    HW326465   0.034   4.620   4.532 -0.0688 -0.6678 -0.9642
 6673SOL    MW426466   0.043   4.549   4.482  0.3363 -0.4468 -0.0214
 6674SOL     OW26467   3.404   4.165   1.648  0.0703 -0.4153  0.3428
 6674SOL    HW226468   3.405   4.140   1.740  0.5847  1.1193  0.7740
 6674SOL    HW326469   3.496   4.173   1.624 -0.0353 -1.4951 -0.5276
 6674SOL    MW426470   3.416   4.162   1.657  0.1201 -0.0551  0.1985
 6675SOL     OW26471   3.854   4.653   5.947 -0.2305  0.1889  0.7745
 6675SOL    HW226472   3.933   4.631   5.995  0.2515 -2.7653 -1.1111
 6675SOL    HW326473   3.883   4.707   5.874  0.9394 -3.9847 -2.1793
 6675SOL    MW426474   3.868   4.657   5.944  0.2057 -0.9390 -0.6551
 6676SOL     OW26475   0.757   5.304   5.824  0.5145  0.2582  0.8142
 6676SOL    HW226476   0.763   5.342   5.912  0.3557 -0.4719  1.1497
 6676SOL    HW326477   0.793   5.372   5.766  0.3608  0.8578  1.4065
 6676SOL    MW426478   0.763   5.318   5.828 -0.3188 -0.1491  0.0031
 6677SOL     OW26479   4.071   1.934   5.996 -0.0245 -0.4156  0.1311
 6677SOL    HW226480   4.047   1.850   5.956 -0.5406  0.6393 -1.8583
 6677SOL    HW326481   3.990   1.967   6.034 -0.2154 -0.0267 -0.6033
 6677SOL    MW426482   4.057   1.927   5.996  0.2735  0.0241 -0.5391
 6678SOL     OW26483   5.853   4.366   0.870 -0.0408 -0.3279  0.1473
 6678SOL    HW226484   5.812   4.336   0.789  0.5376 -1.0994  0.1433
 6678SOL    HW326485   5.910   4.438   0.843 -2.8245  2.1797  0.3842
 6678SOL    MW426486   5.855   4.372   0.856 -0.0489  0.2787 -0.3748
 6679SOL     OW26487   5.373   6.395   4.777  0.6095  0.2107  0.1043
 6679SOL    HW226488   5.367   6.415   4.870  1.5026  1.7314 -0.1373
 6679SOL    HW326489   5.350   6.302   4.771  2.0076 -0.3290  2.0343
 6679SOL    MW426490   5.369   6.385   4.788 -0.0967 -0.8720 -0.3362
 6680SOL     OW26491   4.889   0.780   3.249 -0.4352 -0.0494  0.3682
 6680SOL    HW226492   4.804   0.764   3.207  0.4502  0.3561 -1.7029
 6680SOL    HW326493   4.931   0.694   3.251 -0.6071 -0.1252  0.7228
 6680SOL    MW426494   4.883   0.767   3.244 -0.1150 -0.3287  0.2338
 6681SOL     OW26495   2.299   3.940   3.802 -0.2844  0.5559  0.0382
 6681SOL    HW226496   2.350   4.011   3.761  0.4747  0.8143  1.3625
 6681SOL    HW326497   2.365   3.877   3.830 -0.9318 -0.5114 -0.7673
 6681SOL    MW426498   2.314   3.941   3.800 -0.3714 -0.2652  0.3187
 6682SOL     OW26499   2.387   1.396   4.713 -0.6996  0.2339 -0.0048
 6682SOL    HW226500   2.352   1.332   4.775 -0.7208  1.8577  1.7545
 6682SOL    HW326501   2.400   1.347   4.632 -3.3765 -1.3404  0.4067
 6682SOL    MW426502   2.384   1.381   4.711 -0.0944 -0.3519 -0.2675
 6683SOL     OW26503   1.010   4.038   6.088 -0.2357  0.6577  0.2749
 6683SOL    HW226504   1.000   4.091   6.009  2.0954  0.0150 -0.5326
 6683SOL    HW326505   1.038   4.101   6.155 -0.4958  0.9386  0.1191
 6683SOL    MW426506   1.013   4.054   6.086 -0.6455 -0.0747 -0.7772
 6684SOL     OW26507   3.188   6.406   5.643 -0.2300  0.4142 -0.2649
 6684SOL    HW226508   3.172   6.498   5.662  1.5140  0.9721 -1.2823
 6684SOL    HW326509   3.143   6.390   5.560 -0.2126  0.4358 -0.2778
 6684SOL    MW426510   3.180   6.416   5.634 -0.5326  0.3861  0.6766
 6685SOL     OW26511   5.015   2.546   1.941  0.1212 -0.2125  0.3145
 6685SOL    HW226512   5.084   2.482   1.920  0.8898  0.5332  0.5135
 6685SOL    HW326513   5.047   2.591   2.019 -1.2147 -0.7416  1.2130
 6685SOL    MW426514   5.028   2.543   1.949 -0.0261  0.3285  0.1660
 6686SOL     OW26515   5.680   2.259   4.513  0.6584  0.3378  0.4162
 6686SOL    HW226516   5.722   2.186   4.558  0.5359 -0.2292 -0.3761
 6686SOL    HW326517   5.699   2.335   4.568 -1.0199 -0.6096  2.3996
 6686SOL    MW426518   5.688   2.259   4.526 -0.0689 -0.0471 -0.8826
 6687SOL     OW26519   5.801   1.883   3.264  0.2166  0.5247 -0.4445
 6687SOL    HW226520   5.840   1.797   3.252 -1.0822 -0.0294 -0.8551
 6687SOL    HW326521   5.727   1.868   3.323 -0.4678  1.2271 -1.1058
 6687SOL    MW426522   5.797   1.870   3.271  0.1963 -0.4931 -0.4871
 6688SOL     OW26523   3.758   4.893   3.648 -0.1268  0.2652 -0.0684
 6688SOL    HW226524   3.685   4.835   3.628  0.8523 -0.7459 -0.7682
 6688SOL    HW326525   3.817   4.841   3.703  0.7462  0.5988 -0.6707
 6688SOL    MW426526   3.756   4.879   3.653 -0.2324 -0.3662  0.1727
 6689SOL     OW26527   2.043   4.300   2.696 -0.1322  0.2010  0.3048
 6689SOL    HW226528   2.029   4.275   2.605 -3.0816  2.3902 -0.0316
 6689SOL    HW326529   2.099   4.378   2.691  1.5824 -0.9505  0.6306
 6689SOL    MW426530   2.048   4.307   2.683  0.3588 -0.0398  0.4333
 6690SOL     OW26531   0.428   1.356   3.981  0.1220 -0.1908  0.3856
 6690SOL    HW226532   0.511   1.385   3.944 -0.1342 -0.2894 -0.2851
 6690SOL    HW326533   0.364   1.421   3.952  0.0476  0.1730  1.3381
 6690SOL    MW426534   0.431   1.368   3.972  0.1971 -0.3811  0.1289
 6691SOL     OW26535   0.764   0.296   1.520  0.3802  0.4633  0.0109
 6691SOL    HW226536   0.720   0.211   1.527  1.3724  0.0108  1.0736
 6691SOL    HW326537   0.698   0.360   1.544  0.4720 -0.2634  2.4170
 6691SOL    MW426538   0.750   0.293   1.524 -0.5520 -0.4141  0.8226
 6692SOL     OW26539   2.171   4.300   2.025  0.1894  0.0179 -0.1614
 6692SOL    HW226540   2.153   4.207   2.015 -0.7177  0.2115 -0.4031
 6692SOL    HW326541   2.232   4.305   2.098 -0.7922 -0.6671  0.7297
 6692SOL    MW426542   2.177   4.288   2.033 -0.1638 -0.0783  0.2409
 6693SOL     OW26543   0.356   4.155   5.357  0.4710  0.6002 -0.2665
 6693SOL    HW226544   0.334   4.233   5.307  0.4527  0.3387 -0.6721
 6693SOL    HW326545   0.379   4.188   5.444  2.2491  1.2423 -0.9270
 6693SOL    MW426546   0.357   4.170   5.362 -0.2301 -0.3499 -0.0398
 6694SOL     OW26547   0.761   2.669   3.725  0.1787 -0.1958 -0.3082
 6694SOL    HW226548   0.676   2.696   3.760  0.1570  0.8104 -1.1217
 6694SOL    HW326549   0.751   2.674   3.630  1.1640 -0.0140 -0.4106
 6694SOL    MW426550   0.749   2.673   3.717  0.5716 -0.1883  0.5161
 6695SOL     OW26551   2.388   5.228   3.830 -0.6589  0.2594  0.0347
 6695SOL    HW226552   2.351   5.140   3.840 -2.0847  0.9665  1.4349
 6695SOL    HW326553   2.312   5.284   3.812  0.0037  1.4577  0.8011
 6695SOL    MW426554   2.373   5.224   3.829 -0.7293 -0.1091 -0.7597
 6696SOL     OW26555   2.157   1.592   2.650 -0.3794 -0.5136  0.6279
 6696SOL    HW226556   2.253   1.592   2.643 -0.5069 -1.8757 -2.7295
 6696SOL    HW326557   2.129   1.521   2.593 -3.4244 -0.5731  2.0379
 6696SOL    MW426558   2.166   1.583   2.642 -0.2352  1.0117 -0.0458
 6697SOL     OW26559   1.291   5.609   2.015  0.1298  0.1973 -0.3569
 6697SOL    HW226560   1.267   5.604   2.107  1.7644 -0.2953  0.0790
 6697SOL    HW326561   1.221   5.562   1.969  1.1698 -2.9425  1.0313
 6697SOL    MW426562   1.278   5.602   2.021  0.3495  0.5471 -0.0129
 6698SOL     OW26563   3.895   4.073   2.316  0.5821 -0.4851  0.0658
 6698SOL    HW226564   3.926   4.163   2.317 -0.0460 -0.2567 -0.4396
 6698SOL    HW326565   3.873   4.054   2.408  1.4895 -0.4050  0.3055
 6698SOL    MW426566   3.896   4.082   2.328 -0.0126  0.2571  0.0264
 6699SOL     OW26567   4.053   3.237   5.520  0.6813 -0.3809 -0.5275
 6699SOL    HW226568   4.005   3.154   5.517 -0.5329  0.2623  0.4389
 6699SOL    HW326569   4.087   3.242   5.609 -0.8132  0.9886  0.0055
 6699SOL    MW426570   4.051   3.227   5.531  0.3049  0.0023 -0.5545
 6700SOL     OW26571   4.941   0.318   4.426 -0.0363 -0.2071  0.2174
 6700SOL    HW226572   4.977   0.256   4.488 -2.1783 -1.0590  0.7138
 6700SOL    HW326573   5.002   0.316   4.352  0.9776 -1.4093  1.0406
 6700SOL    MW426574   4.954   0.309   4.424  0.1369 -0.3947  0.0985
 6701SOL     OW26575   3.069   1.192   4.595  0.6649  0.0744 -0.4934
 6701SOL    HW226576   3.138   1.127   4.590  0.5768 -0.0945  0.3119
 6701SOL    HW326577   3.017   1.166   4.672 -0.2054  0.2774 -0.9921
 6701SOL    MW426578   3.071   1.180   4.605 -0.2670  0.5560 -0.1975
 6702SOL     OW26579   3.643   5.356   3.097  0.4220  0.2091 -0.1495
 6702SOL    HW226580   3.672   5.411   3.170  0.9931  1.5633 -1.3249
 6702SOL    HW326581   3.678   5.401   3.019 -1.2610 -0.4642 -1.3388
 6702SOL    MW426582   3.652   5.369   3.096  0.3586  0.7424 -0.3522
 6703SOL     OW26583   4.128   3.341   4.328  0.3421 -0.2995 -0.0288
 6703SOL    HW226584   4.150   3.412   4.269  0.8440 -1.2738 -1.0521
 6703SOL    HW326585   4.210   3.294   4.342 -0.2648 -1.5613 -0.5912
 6703SOL    MW426586   4.142   3.344   4.322 -0.0275 -0.1506 -0.0879
 6704SOL     OW26587   1.150   6.395   2.317 -0.6611 -0.2681  0.5248
 6704SOL    HW226588   1.216   6.396   2.247 -0.4536  0.4459  0.7250
 6704SOL    HW326589   1.200   6.376   2.396 -0.7256  0.0545  0.6441
 6704SOL    MW426590   1.165   6.393   2.318 -0.0758  0.3633  0.5617
 6705SOL     OW26591   2.365   1.050   6.346  0.1520  0.2453 -0.3950
 6705SOL    HW226592   2.406   1.054   6.259  0.0213  0.7425 -0.4351
 6705SOL    HW326593   2.277   1.085   6.333  0.3354  0.8762  0.0567
 6705SOL    MW426594   2.359   1.055   6.333 -0.7106 -0.0196 -0.2556
 6706SOL     OW26595   5.578   1.338   5.128 -0.2610  0.5069 -0.3086
 6706SOL    HW226596   5.487   1.313   5.112  0.5425 -2.7133 -0.4729
 6706SOL    HW326597   5.598   1.304   5.215  1.3186 -0.6515 -1.0717
 6706SOL    MW426598   5.569   1.330   5.137  0.0448 -0.4364 -0.2822
 6707SOL     OW26599   5.605   5.654   4.067 -0.0393 -0.3226 -0.4755
 6707SOL    HW226600   5.551   5.612   3.999  1.7149 -1.8216 -1.0117
 6707SOL    HW326601   5.570   5.743   4.073 -1.7172 -0.8383 -1.7065
 6707SOL    MW426602   5.593   5.660   4.059  0.2271 -0.9142  0.3175
 6708SOL     OW26603   3.852   5.052   5.998 -0.3006 -0.2194 -0.1524
 6708SOL    HW226604   3.931   5.090   5.960 -0.2073 -0.9151 -0.6798
 6708SOL    HW326605   3.848   5.087   6.087  0.5239 -0.0611 -0.1733
 6708SOL    MW426606   3.862   5.061   6.005  0.0433 -0.2781  0.3174
 6709SOL     OW26607   2.437   5.443   0.682 -0.1486  0.0977  0.6209
 6709SOL    HW226608   2.508   5.402   0.733  0.5665  0.9542  0.3495
 6709SOL    HW326609   2.437   5.535   0.711 -0.9730  0.1675  0.4153
 6709SOL    MW426610   2.447   5.450   0.692 -0.3003 -0.1671 -0.4833
 6710SOL     OW26611   1.899   4.451   4.894 -0.2658  0.6211 -0.3053
 6710SOL    HW226612   1.978   4.440   4.841  0.1712 -0.5431  0.5320
 6710SOL    HW326613   1.868   4.362   4.910 -0.5654  0.9510  1.1067
 6710SOL    MW426614   1.905   4.438   4.889 -0.0852 -0.3297  0.3091
 6711SOL     OW26615   5.614   5.002   4.086  0.2621 -0.0215  0.4174
 6711SOL    HW226616   5.534   4.972   4.129  0.0727 -0.1525 -0.0236
 6711SOL    HW326617   5.596   5.094   4.065  0.3829  0.0645  0.6769
 6711SOL    MW426618   5.601   5.010   4.089 -0.6333 -0.3252 -0.6855
 6712SOL     OW26619   4.028   1.045   2.448 -0.0476 -0.7579  0.3883
 6712SOL    HW226620   4.117   1.022   2.423  0.2719  0.9751 -0.2120
 6712SOL    HW326621   4.032   1.139   2.465 -1.6346 -0.7697  0.9578
 6712SOL    MW426622   4.040   1.054   2.447 -0.7528  0.4064 -0.0048
 6713SOL     OW26623   1.959   0.694   1.960  0.2395 -0.2241 -0.5063
 6713SOL    HW226624   2.027   0.711   1.895  1.0877 -1.1620  0.1205
 6713SOL    HW326625   1.946   0.778   2.004 -0.7995  0.6007 -2.2611
 6713SOL    MW426626   1.966   0.707   1.957  0.4247 -0.2778 -0.1420
 6714SOL     OW26627   0.566   0.662   3.159 -0.3475 -0.1528 -0.1340
 6714SOL    HW226628   0.535   0.587   3.211 -1.7865  1.7615  1.9652
 6714SOL    HW326629   0.601   0.723   3.224  0.3038  1.2570 -1.7239
 6714SOL    MW426630   0.567   0.660   3.175  0.4584  0.4802  0.3237
 6715SOL     OW26631   5.729   5.810   5.549  0.1324 -0.4934  0.3154
 6715SOL    HW226632   5.680   5.834   5.628 -1.4541 -0.4335 -0.6451
 6715SOL    HW326633   5.694   5.724   5.525  1.2885 -0.9433  0.1942
 6715SOL    MW426634   5.718   5.801   5.557  0.4312 -0.1190  0.2122
 6716SOL     OW26635   3.719   1.421   3.498  0.4113  0.9385 -0.3615
 6716SOL    HW226636   3.755   1.504   3.530 -0.5494  0.7402  1.3794
 6716SOL    HW326637   3.664   1.445   3.424  1.9094  1.5586 -1.3166
 6716SOL    MW426638   3.716   1.435   3.493 -0.2315 -0.4670  0.3199
 6717SOL     OW26639   5.430   1.919   2.925  0.1252 -0.3879 -0.3839
 6717SOL    HW226640   5.363   1.945   2.988  0.2171 -3.1124  0.9844
 6717SOL    HW326641   5.513   1.939   2.968  0.1859 -0.6376 -0.3827
 6717SOL    MW426642   5.432   1.925   2.939 -0.5870 -0.1337 -0.1406
 6718SOL     OW26643   2.523   5.902   6.045 -0.3204  0.1080 -0.0792
 6718SOL    HW226644   2.594   5.947   6.089 -0.1288 -0.8485  0.6347
 6718SOL    HW326645   2.566   5.831   5.996 -0.7704 -0.5669  0.4735
 6718SOL    MW426646   2.538   5.898   6.044  0.1192 -0.1839  0.6167
 6719SOL     OW26647   0.456   5.157   1.795  0.1036 -0.5635  0.0094
 6719SOL    HW226648   0.416   5.169   1.709 -1.8313  0.9462  1.0294
 6719SOL    HW326649   0.508   5.237   1.808  0.2952 -0.7321  0.2918
 6719SOL    MW426650   0.458   5.169   1.785 -0.0030  0.0429  1.0275
 6720SOL     OW26651   4.356   4.641   3.642 -0.0139  0.2942  0.3185
 6720SOL    HW226652   4.355   4.571   3.577 -0.2377 -0.1474  0.7934
 6720SOL    HW326653   4.310   4.605   3.718 -2.2320  1.7641 -0.2480
 6720SOL    MW426654   4.350   4.627   3.644  0.1811  0.1246  0.2771
 6721SOL     OW26655   3.425   4.869   1.713  0.1507  0.1493  0.6484
 6721SOL    HW226656   3.520   4.878   1.706  0.2655 -1.1819  0.2582
 6721SOL    HW326657   3.394   4.959   1.724  1.6554  0.4439  3.8074
 6721SOL    MW426658   3.434   4.882   1.714  0.0340 -0.0457 -0.6863
 6722SOL     OW26659   1.136   6.306   5.917 -0.5353 -0.0159 -0.3198
 6722SOL    HW226660   1.072   6.344   5.978 -0.3654 -2.2018  1.3293
 6722SOL    HW326661   1.085   6.288   5.838 -1.3416  0.6690  0.0225
 6722SOL    MW426662   1.121   6.309   5.915 -0.3305 -0.2416 -0.0626
 6723SOL     OW26663   3.763   0.612   2.408 -0.1262  0.1875 -0.3209
 6723SOL    HW226664   3.794   0.592   2.319 -1.3598 -1.5713 -0.4040
 6723SOL    HW326665   3.668   0.605   2.402 -0.3923  2.2566  0.6670
 6723SOL    MW426666   3.754   0.609   2.395  0.5016 -0.3526  0.0553
 6724SOL     OW26667   2.508   3.973   4.352 -0.3411 -0.3162  0.6809
 6724SOL    HW226668   2.413   3.972   4.365 -0.5458 -0.3399 -0.6871
 6724SOL    HW326669   2.528   4.064   4.330  0.2991  0.1889  3.0481
 6724SOL    MW426670   2.498   3.985   4.351 -0.4700 -0.5226 -0.1058
 6725SOL     OW26671   6.070   5.153   5.801 -0.1276 -0.4698  0.0688
 6725SOL    HW226672   6.013   5.155   5.725 -0.2034 -2.1560  0.0283
 6725SOL    HW326673   6.148   5.105   5.772  0.0944 -0.6214  0.8733
 6725SOL    MW426674   6.073   5.147   5.787  0.1059 -0.3594  0.7640
 6726SOL     OW26675   2.180   5.462   5.887  0.1298  0.0912  0.0341
 6726SOL    HW226676   2.257   5.492   5.935  0.1885  1.4125 -0.8363
 6726SOL    HW326677   2.198   5.485   5.796 -1.3869  0.6391 -0.1524
 6726SOL    MW426678   2.193   5.469   5.881  0.2941  0.0102 -0.2099
 6727SOL     OW26679   1.835   4.319   0.284 -0.3447 -0.0997  0.4638
 6727SOL    HW226680   1.772   4.251   0.262  0.1241 -0.4183  0.0924
 6727SOL    HW326681   1.881   4.286   0.361  1.0289 -0.9815 -0.6855
 6727SOL    MW426682   1.833   4.306   0.291 -0.8596 -0.6165  0.5283
 6728SOL     OW26683   4.953   0.426   3.702  0.2848 -0.0495 -0.1045
 6728SOL    HW226684   4.940   0.401   3.611  0.5813 -0.4861 -0.0302
 6728SOL    HW326685   4.886   0.378   3.751  0.8544 -0.7205  0.0379
 6728SOL    MW426686   4.943   0.416   3.697  0.0329 -0.1192 -0.1005
 6729SOL     OW26687   5.317   1.926   1.843  0.3726  0.3999 -0.2011
 6729SOL    HW226688   5.288   1.990   1.909  0.1350  0.5081 -0.4067
 6729SOL    HW326689   5.257   1.939   1.770  0.1466 -0.2598 -0.1333
 6729SOL    MW426690   5.305   1.936   1.842 -0.0012 -0.4089  0.0157
 6730SOL     OW26691   0.506   2.747   3.861  0.3635  0.0407 -0.5739
 6730SOL    HW226692   0.549   2.730   3.945 -0.0459  0.0509 -0.3588
 6730SOL    HW326693   0.440   2.677   3.854  1.5727 -1.0457 -1.7158
 6730SOL    MW426694   0.503   2.735   3.871  0.6045  0.1830  0.5735
 6731SOL     OW26695   5.931   2.412   1.928 -0.9420  0.9651  0.1089
 6731SOL    HW226696   6.003   2.447   1.980 -1.2515  0.8699  0.6042
 6731SOL    HW326697   5.961   2.420   1.837 -0.7389  1.9175  0.2453
 6731SOL    MW426698   5.944   2.418   1.923  0.3022 -0.3711  0.1380
 6732SOL     OW26699   2.735   2.900   4.764  0.3171 -0.0872 -0.3748
 6732SOL    HW226700   2.667   2.833   4.779  2.0677 -1.8701  0.0916
 6732SOL    HW326701   2.717   2.933   4.676 -1.0109 -0.6772 -0.3507
 6732SOL    MW426702   2.723   2.895   4.754  0.0523 -0.2185  0.1470
 6733SOL     OW26703   4.454   2.487   1.314 -0.1897 -0.2866  0.4438
 6733SOL    HW226704   4.525   2.504   1.376 -0.7588 -0.1163  1.0586
 6733SOL    HW326705   4.412   2.408   1.347 -0.5368 -0.1549  0.3177
 6733SOL    MW426706   4.458   2.479   1.327 -0.2582  0.0636  0.1549
 6734SOL     OW26707   1.154   3.070   0.493 -0.3623 -0.2112  0.0139
 6734SOL    HW226708   1.118   3.157   0.476 -1.2479 -0.0382  2.3922
 6734SOL    HW326709   1.186   3.041   0.408 -1.1377  1.9277 -1.0998
 6734SOL    MW426710   1.153   3.078   0.479  0.6600  0.1599 -0.1211
 6735SOL     OW26711   0.748   1.116   3.663  0.8923 -0.4528  0.5419
 6735SOL    HW226712   0.838   1.094   3.687  1.0917  0.0878  0.3082
 6735SOL    HW326713   0.757   1.189   3.602  0.1990  1.0967  2.2262
 6735SOL    MW426714   0.761   1.122   3.658  0.1386  0.3783  0.4828
 6736SOL     OW26715   2.353   0.022   3.943 -0.0395 -0.1272 -0.0205
 6736SOL    HW226716   2.377   0.113   3.961  0.4894  0.0278 -1.3880
 6736SOL    HW326717   2.414  -0.029   3.996 -0.8022  0.2903  1.3107
 6736SOL    MW426718   2.365   0.027   3.952  0.0548  0.0977 -0.4254
 6737SOL     OW26719   4.019   3.716   1.115  0.1124 -0.0937  0.7244
 6737SOL    HW226720   4.001   3.781   1.047 -0.4514 -1.3529 -0.3697
 6737SOL    HW326721   3.945   3.724   1.176 -1.3395 -1.4000 -0.7690
 6737SOL    MW426722   4.007   3.726   1.114  0.0796  0.3670  0.3842
 6738SOL     OW26723   3.770   6.031   1.475 -0.3426  0.1949  0.1864
 6738SOL    HW226724   3.803   6.109   1.519 -1.7847  0.4119  0.9407
 6738SOL    HW326725   3.693   6.061   1.427  0.9606 -0.1318 -2.2066
 6738SOL    MW426726   3.764   6.045   1.475  0.4863 -0.1686 -0.2471
 6739SOL     OW26727   5.667   0.305   5.340  0.1809 -0.0269  0.4519
 6739SOL    HW226728   5.653   0.210   5.348 -2.0024 -0.0132 -1.6679
 6739SOL    HW326729   5.702   0.316   5.251  1.8306  1.0826  1.2073
 6739SOL    MW426730   5.670   0.294   5.329  0.2235 -0.3343 -0.6875
 6740SOL     OW26731   0.080   2.840   0.618 -0.0461 -0.2034  0.0357
 6740SOL    HW226732   0.109   2.853   0.527 -0.0052  0.3478  0.1240
 6740SOL    HW326733   0.139   2.895   0.669 -1.4624  1.2390  0.1918
 6740SOL    MW426734   0.092   2.849   0.613  0.5523 -0.2638  0.1606
 6741SOL     OW26735   0.664   5.968   6.314  0.1882  1.2169  0.2491
 6741SOL    HW226736   0.665   5.946   6.407  0.5960  0.9958  0.1908
 6741SOL    HW326737   0.755   5.966   6.287 -0.0149  0.2113 -0.4083
 6741SOL    MW426738   0.676   5.965   6.323  0.1589 -0.3885 -0.3374
 6742SOL     OW26739   3.035   1.418   1.584  0.1775  0.0433 -0.2378
 6742SOL    HW226740   3.018   1.507   1.552 -2.0704 -0.0017  0.6717
 6742SOL    HW326741   3.058   1.430   1.676 -0.9743 -0.3713  0.1084
 6742SOL    MW426742   3.036   1.432   1.592 -0.1268  0.1003  0.1733
 6743SOL     OW26743   1.813   1.612   3.188 -0.7115  0.2606 -0.5269
 6743SOL    HW226744   1.800   1.701   3.223 -2.8028 -0.2072  0.0316
 6743SOL    HW326745   1.811   1.623   3.093 -0.2353  0.8886 -0.4708
 6743SOL    MW426746   1.811   1.625   3.181  0.0539 -0.3811 -0.5316
 6744SOL     OW26747   2.713   5.221   4.436 -0.0705  0.1296  0.5536
 6744SOL    HW226748   2.622   5.219   4.409 -0.6019  2.9395  1.8113
 6744SOL    HW326749   2.755   5.283   4.376  1.0296 -1.0556  0.0477
 6744SOL    MW426750   2.707   5.229   4.424  0.0551  0.0529 -0.2712
 6745SOL     OW26751   5.274   2.391   2.188 -0.7572  0.1035  0.3772
 6745SOL    HW226752   5.226   2.469   2.217  0.1457  0.4989  0.8676
 6745SOL    HW326753   5.361   2.401   2.227 -0.3925 -0.7817 -0.1777
 6745SOL    MW426754   5.279   2.402   2.197  0.4731 -0.8656 -0.3529
 6746SOL     OW26755   2.803   2.124   0.194  0.1011  0.5101  0.0906
 6746SOL    HW226756   2.850   2.205   0.175  2.4486 -0.5077  1.1505
 6746SOL    HW326757   2.779   2.090   0.107  0.2852  1.6236 -0.4216
 6746SOL    MW426758   2.806   2.130   0.180 -0.1091  0.5164 -0.2852
 6747SOL     OW26759   3.530   1.600   1.738  0.0242 -0.0679 -0.4125
 6747SOL    HW226760   3.513   1.534   1.671 -0.5263 -0.2969 -0.0638
 6747SOL    HW326761   3.500   1.682   1.700  0.2349 -0.1045 -0.6577
 6747SOL    MW426762   3.524   1.602   1.724 -1.0446  0.1844  0.0878
 6748SOL     OW26763   5.782   2.352   1.487 -0.5089 -0.4238  0.7378
 6748SOL    HW226764   5.803   2.398   1.406  1.1993  0.4317  1.6215
 6748SOL    HW326765   5.699   2.390   1.515 -1.5599 -1.3000 -0.9806
 6748SOL    MW426766   5.773   2.363   1.480  0.2125  0.4458  0.3174
 6749SOL     OW26767   5.815   4.417   5.290 -0.0152  0.0640  0.2355
 6749SOL    HW226768   5.743   4.457   5.242  0.6558  2.2461  0.9567
 6749SOL    HW326769   5.773   4.374   5.365 -0.5820  1.4596  0.7464
 6749SOL    MW426770   5.800   4.416   5.294 -0.4225 -0.4934  0.4223
 6750SOL     OW26771   3.716   1.668   5.277  0.2826 -0.1341 -0.3414
 6750SOL    HW226772   3.738   1.649   5.186  0.0670 -0.3724 -0.3467
 6750SOL    HW326773   3.621   1.673   5.278  0.3343  1.1866 -0.3762
 6750SOL    MW426774   3.706   1.666   5.265  0.8232 -0.0032 -0.5835
 6751SOL     OW26775   3.392   4.365   5.518  0.6416  0.0498  0.5104
 6751SOL    HW226776   3.416   4.418   5.594  2.0176 -1.9337  1.5320
 6751SOL    HW326777   3.471   4.315   5.497 -0.9480 -2.7501  0.6247
 6751SOL    MW426778   3.405   4.365   5.525  0.0646 -0.2788  0.3843
 6752SOL     OW26779   0.026   4.933   6.180 -0.5813  0.2761 -0.0408
 6752SOL    HW226780   0.119   4.920   6.161 -0.7622 -0.7352 -0.3132
 6752SOL    HW326781  -0.015   4.850   6.155 -1.5342  0.6516  0.2338
 6752SOL    MW426782   0.033   4.920   6.174  0.0812 -0.3104 -0.4430
 6753SOL     OW26783   2.180   0.705   1.773 -0.3005 -0.3322 -0.2220
 6753SOL    HW226784   2.247   0.637   1.775 -0.6229 -0.6302  0.6238
 6753SOL    HW326785   2.215   0.771   1.713  0.4479 -0.7907 -0.2983
 6753SOL    MW426786   2.193   0.705   1.765  0.5281  0.3352 -0.2633
 6754SOL     OW26787   1.817   4.348   4.548 -0.4356 -0.3950 -0.3989
 6754SOL    HW226788   1.905   4.384   4.546 -0.3233 -0.6635 -2.2740
 6754SOL    HW326789   1.768   4.407   4.606  1.2728 -1.1172  1.9046
 6754SOL    MW426790   1.822   4.361   4.555  0.5431 -0.0802  0.1547
 6755SOL     OW26791   3.241   3.048   5.826 -0.2682 -0.1718 -0.2092
 6755SOL    HW226792   3.285   3.132   5.838  0.1441 -0.1031 -1.9147
 6755SOL    HW326793   3.301   2.998   5.771 -1.1977 -1.0293 -0.4630
 6755SOL    MW426794   3.255   3.053   5.821  0.3423 -0.3879  0.3028
 6756SOL     OW26795   5.561   3.867   5.000 -0.4275 -0.3790  0.3276
 6756SOL    HW226796   5.485   3.922   5.018 -1.5271 -1.6862 -0.1834
 6756SOL    HW326797   5.546   3.833   4.912 -0.1460 -2.0403  0.8808
 6756SOL    MW426798   5.549   3.870   4.991  0.4775 -0.4644  0.7914
 6757SOL     OW26799   0.386   5.043   5.349 -0.2729  0.0691  0.0349
 6757SOL    HW226800   0.464   4.993   5.325 -0.1108 -0.5645  1.7573
 6757SOL    HW326801   0.419   5.128   5.376  0.0162 -0.6792  2.1724
 6757SOL    MW426802   0.400   5.048   5.349 -0.5300 -0.1674  0.9998
 6758SOL     OW26803   0.407   1.133   2.528 -0.0146 -0.9356 -0.1404
 6758SOL    HW226804   0.442   1.048   2.500  0.0138  0.2123 -4.2601
 6758SOL    HW326805   0.323   1.112   2.568  0.3685 -2.9476 -0.2578
 6758SOL    MW426806   0.400   1.119   2.529  0.5428  0.6246 -0.1526
 6759SOL     OW26807   6.155   1.224   6.008 -0.4603 -0.1382 -0.7670
 6759SOL    HW226808   6.085   1.272   6.052 -0.1133  0.1722 -0.5526
 6759SOL    HW326809   6.236   1.268   6.035 -0.1057 -1.0424 -0.2917
 6759SOL    MW426810   6.156   1.236   6.017  0.1185  0.0022  0.0283
 6760SOL     OW26811   0.049   2.236   4.414 -0.3824  0.2095 -0.0150
 6760SOL    HW226812   0.022   2.206   4.500 -0.2207 -0.9241 -0.3406
 6760SOL    HW326813  -0.032   2.252   4.366 -0.5070 -1.5177 -0.4304
 6760SOL    MW426814   0.035   2.234   4.419  0.0955 -0.4300 -0.1168
 6761SOL     OW26815   5.130   0.669   2.043  0.3365 -0.2611  0.3622
 6761SOL    HW226816   5.087   0.659   2.127 -0.9160  2.7761  0.2102
 6761SOL    HW326817   5.064   0.644   1.978 -0.5397  2.2178  0.2041
 6761SOL    MW426818   5.116   0.664   2.045 -0.1528 -0.1956 -0.2780
 6762SOL     OW26819   2.664   0.614   3.960  0.7347  0.0205 -0.2739
 6762SOL    HW226820   2.629   0.543   3.906 -0.2877  0.2150  0.1247
 6762SOL    HW326821   2.590   0.645   4.011  1.6966 -0.2344  1.3442
 6762SOL    MW426822   2.650   0.609   3.959 -0.3528 -0.5162 -0.0977
 6763SOL     OW26823   2.503   4.288   3.071  0.3737 -0.5418  0.6859
 6763SOL    HW226824   2.503   4.213   3.131 -0.0821  0.5001  2.0393
 6763SOL    HW326825   2.526   4.363   3.125  0.9226  0.3091 -0.6615
 6763SOL    MW426826   2.506   4.288   3.086 -0.3523 -0.5919 -0.3583
 6764SOL     OW26827   5.142   2.746   5.898  0.3888  0.1803 -0.1849
 6764SOL    HW226828   5.183   2.766   5.814 -0.0696  0.3676 -0.3707
 6764SOL    HW326829   5.056   2.711   5.874  0.2437  0.2651  0.2080
 6764SOL    MW426830   5.136   2.744   5.884  0.1059 -0.5790 -0.0410
 6765SOL     OW26831   1.914   0.729   1.229  0.2708 -0.5819 -0.2336
 6765SOL    HW226832   1.887   0.696   1.315  0.5748  1.9786  0.9316
 6765SOL    HW326833   1.850   0.692   1.168 -0.8770 -1.2337  1.2903
 6765SOL    MW426834   1.902   0.720   1.233 -0.0203 -0.0454  0.7073
 6766SOL     OW26835   0.791   5.011   0.162  0.2596 -0.0277 -0.6367
 6766SOL    HW226836   0.781   4.953   0.087 -0.1810  1.2917 -1.6456
 6766SOL    HW326837   0.811   4.953   0.235  3.0297 -1.1841 -2.1936
 6766SOL    MW426838   0.792   4.996   0.162 -0.0723  0.3170 -0.7463
 6767SOL     OW26839   4.826   4.888   6.256  0.3941  0.1289  0.4955
 6767SOL    HW226840   4.790   4.952   6.318 -1.2639 -2.2831  2.2355
 6767SOL    HW326841   4.905   4.855   6.299  1.1088  0.7862 -0.2822
 6767SOL    MW426842   4.831   4.892   6.270 -0.2522  0.1049 -0.8903
 6768SOL     OW26843   5.500   5.985   6.187 -0.0070 -0.1638  0.2527
 6768SOL    HW226844   5.591   6.006   6.166 -0.2999  1.1667  0.2019
 6768SOL    HW326845   5.496   5.986   6.282 -0.4119  2.1069  0.2823
 6768SOL    MW426846   5.511   5.988   6.197  0.0949  0.1850 -0.4361
 6769SOL     OW26847   1.124   1.168   0.435  0.2331 -0.4326 -0.3308
 6769SOL    HW226848   1.062   1.240   0.425  0.2646 -0.6787 -2.9942
 6769SOL    HW326849   1.070   1.095   0.466 -0.7335 -0.4275 -1.8610
 6769SOL    MW426850   1.108   1.168   0.438  0.6544 -0.4540  0.4132
 6770SOL     OW26851   4.552   2.606   5.592 -0.4048  0.1839  0.3476
 6770SOL    HW226852   4.581   2.535   5.535 -1.6237  0.4052 -0.5752
 6770SOL    HW326853   4.575   2.576   5.680  0.8141 -0.5028 -0.1800
 6770SOL    MW426854   4.559   2.592   5.596  0.0671 -0.2990 -0.3292
 6771SOL     OW26855   3.603   0.280   2.257  0.3502 -0.2408 -0.2887
 6771SOL    HW226856   3.515   0.312   2.241  0.4325 -0.3009 -0.9036
 6771SOL    HW326857   3.618   0.295   2.351  0.0228  0.6014 -0.3600
 6771SOL    MW426858   3.594   0.286   2.267 -0.6845  0.0244 -0.2670
 6772SOL     OW26859   4.740   1.993   4.741  0.3525 -1.1756 -0.1589
 6772SOL    HW226860   4.814   1.948   4.782  1.5375 -0.0371 -0.9489
 6772SOL    HW326861   4.764   1.998   4.648 -0.0733  0.4044 -0.2130
 6772SOL    MW426862   4.753   1.988   4.734  0.0546  0.0406  0.3858
 6773SOL     OW26863   1.503   0.526   5.393 -0.2531 -0.0215 -0.1738
 6773SOL    HW226864   1.436   0.557   5.331  0.5883 -0.7614 -1.5162
 6773SOL    HW326865   1.573   0.591   5.387  0.8893 -1.3093 -1.9113
 6773SOL    MW426866   1.503   0.538   5.384  0.4825  0.0984 -0.0856
 6774SOL     OW26867   0.459   1.205   3.533  0.2720  0.1548 -0.1064
 6774SOL    HW226868   0.409   1.274   3.577  0.6988  0.4937 -0.1516
 6774SOL    HW326869   0.531   1.185   3.593 -0.7539 -1.4059  0.6677
 6774SOL    MW426870   0.462   1.212   3.546  0.1082  0.6249 -0.1246
 6775SOL     OW26871   0.989   0.666   3.552  0.4970 -0.1039 -0.0209
 6775SOL    HW226872   0.900   0.653   3.518  0.7033  0.3509 -0.7493
 6775SOL    HW326873   0.984   0.637   3.643  0.0025 -1.6327 -0.5025
 6775SOL    MW426874   0.976   0.660   3.559 -0.7532 -0.5122  0.1293
 6776SOL     OW26875   6.149   1.967   2.160  0.0794 -0.2100 -0.2103
 6776SOL    HW226876   6.238   1.947   2.131 -0.7193 -0.6415 -2.5961
 6776SOL    HW326877   6.120   2.037   2.102 -0.8360  0.6112  1.1672
 6776SOL    MW426878   6.157   1.974   2.149  0.3030  0.1531 -0.6380
 6777SOL     OW26879   3.534   1.281   2.914  0.0717 -0.2081 -0.2919
 6777SOL    HW226880   3.610   1.336   2.931 -0.6751  0.5842  0.6461
 6777SOL    HW326881   3.522   1.284   2.819  0.1132  1.1780 -0.2696
 6777SOL    MW426882   3.542   1.289   2.904  0.2565 -0.6340  0.1309
 6778SOL     OW26883   2.233   5.152   3.454  0.0629  0.1064  0.3119
 6778SOL    HW226884   2.236   5.139   3.359 -0.4665  2.2894 -0.0602
 6778SOL    HW326885   2.142   5.133   3.478  0.0613  0.0907  0.2938
 6778SOL    MW426886   2.222   5.148   3.445  0.2622 -0.1373 -0.9340
 6779SOL     OW26887   0.948   0.597   1.629  0.0677  0.9124 -0.2642
 6779SOL    HW226888   1.043   0.598   1.643 -0.0966  0.7482  1.0024
 6779SOL    HW326889   0.914   0.547   1.703 -0.8958 -0.3605 -1.5203
 6779SOL    MW426890   0.956   0.591   1.641 -0.5484 -0.1926 -0.0089
 6780SOL     OW26891   2.546   5.339   0.302 -0.3817 -0.4646 -0.3624
 6780SOL    HW226892   2.459   5.341   0.344 -0.8539  1.5443 -1.2950
 6780SOL    HW326893   2.547   5.418   0.247  2.4523  0.1413  0.4370
 6780SOL    MW426894   2.534   5.350   0.300 -0.4125  0.2509 -0.3611
 6781SOL     OW26895   6.359   5.802   3.313  0.4600 -0.2526  0.6136
 6781SOL    HW226896   6.367   5.876   3.252  0.6076  0.2326  1.2134
 6781SOL    HW326897   6.267   5.799   3.337  0.2468 -0.9373 -0.2269
 6781SOL    MW426898   6.348   5.811   3.308 -0.2582 -0.8708 -0.4442
 6782SOL     OW26899   6.170   0.944   2.967 -0.5544  0.0502  0.4252
 6782SOL    HW226900   6.088   0.902   2.941 -0.1954 -0.5507  0.2421
 6782SOL    HW326901   6.148   0.994   3.046 -1.2304  0.3899  0.0192
 6782SOL    MW426902   6.157   0.945   2.974  0.6546  0.3302  0.5789
 6783SOL     OW26903   5.898   0.557   2.702 -0.7788 -0.3415  0.1508
 6783SOL    HW226904   5.904   0.622   2.772 -0.5960 -0.2519  0.0545
 6783SOL    HW326905   5.813   0.515   2.714 -0.0793 -1.5085  1.4689
 6783SOL    MW426906   5.888   0.560   2.713  0.2623  0.5705 -0.1343
 6784SOL     OW26907   4.233   3.584   5.730 -0.3514 -0.2232  0.0629
 6784SOL    HW226908   4.283   3.598   5.810  0.0345  0.4575 -0.2858
 6784SOL    HW326909   4.155   3.639   5.741  1.2728  2.6193 -1.4051
 6784SOL    MW426910   4.229   3.593   5.742 -0.3817  0.0880 -0.4600
 6785SOL     OW26911   3.932   1.628   3.795  0.5034  0.2713  0.0167
 6785SOL    HW226912   3.882   1.667   3.723  2.8762  2.1098 -0.7644
 6785SOL    HW326913   3.988   1.563   3.754 -0.3645 -0.9764  0.7263
 6785SOL    MW426914   3.933   1.625   3.780 -0.0493 -0.1326 -0.3905
 6786SOL     OW26915   1.609   5.260   6.235  0.4102  0.0474 -0.4339
 6786SOL    HW226916   1.635   5.295   6.150  1.6382 -2.0242 -0.9748
 6786SOL    HW326917   1.632   5.167   6.232 -2.2224 -0.7896  1.0960
 6786SOL    MW426918   1.615   5.252   6.223  0.3515  0.1834 -0.6388
 6787SOL     OW26919   6.301   3.587   4.024 -0.1038 -0.7764 -0.2244
 6787SOL    HW226920   6.370   3.573   4.089 -0.9241 -0.3610  0.7853
 6787SOL    HW326921   6.273   3.499   3.998  0.4733 -0.9458 -0.2767
 6787SOL    MW426922   6.306   3.574   4.029  0.4477  0.3620  0.4648
 6788SOL     OW26923   2.267   2.400   0.244  0.4401  0.2381  0.0044
 6788SOL    HW226924   2.349   2.397   0.193 -0.8814 -0.7862 -2.2048
 6788SOL    HW326925   2.242   2.308   0.254  0.4479  0.4366  2.2812
 6788SOL    MW426926   2.275   2.387   0.239 -0.6286  0.2066  0.2588
 6789SOL     OW26927   2.984   4.099   0.317 -0.0103  0.2091 -0.2432
 6789SOL    HW226928   3.002   4.157   0.244 -1.2699  2.0806  0.8599
 6789SOL    HW326929   3.041   4.130   0.388  0.0941 -0.6196  0.0577
 6789SOL    MW426930   2.994   4.110   0.317 -0.0336 -0.4729 -0.4830
 6790SOL     OW26931   5.818   3.847   4.193 -0.1808  0.0977 -0.5644
 6790SOL    HW226932   5.885   3.840   4.261  1.6046 -0.3660 -2.2853
 6790SOL    HW326933   5.739   3.873   4.240  0.4932 -1.9685  1.9474
 6790SOL    MW426934   5.816   3.849   4.208 -0.3126  0.4832  0.3166
 6791SOL     OW26935   4.351   0.241   5.514  0.2149 -0.1490  0.2313
 6791SOL    HW226936   4.346   0.322   5.565 -1.9407  0.1127 -0.3101
 6791SOL    HW326937   4.344   0.269   5.423 -1.1247 -0.9465  0.0569
 6791SOL    MW426938   4.349   0.255   5.509 -0.1505 -0.4912 -0.3304
 6792SOL     OW26939   3.011   4.483   3.022 -0.4710  0.1342  0.1587
 6792SOL    HW226940   2.984   4.403   3.067 -1.8759  0.9076  0.7688
 6792SOL    HW326941   2.962   4.553   3.066  0.3849  1.2850 -0.6427
 6792SOL    MW426942   3.001   4.482   3.034 -0.0927  0.1210  0.2262
 6793SOL     OW26943   3.801   5.432   4.726  0.4413  0.3053  0.1349
 6793SOL    HW226944   3.761   5.418   4.811 -0.4511  0.9130 -0.1672
 6793SOL    HW326945   3.799   5.527   4.714 -1.0271  0.1341 -1.2891
 6793SOL    MW426946   3.796   5.443   4.735 -0.5792 -0.0836  0.4692
 6794SOL     OW26947   1.909   3.194   0.339  0.3724  0.0171 -0.7970
 6794SOL    HW226948   1.875   3.131   0.275  0.9352 -0.3272 -0.7705
 6794SOL    HW326949   1.935   3.140   0.414  2.1004  0.0962 -1.2907
 6794SOL    MW426950   1.908   3.178   0.341  0.1338  0.3010  0.7533
 6795SOL     OW26951   3.555   5.558   1.125 -0.5768  0.4878 -0.6750
 6795SOL    HW226952   3.537   5.608   1.205 -2.2602 -0.4187 -0.4527
 6795SOL    HW326953   3.647   5.575   1.107 -0.6169  2.1330  0.4555
 6795SOL    MW426954   3.565   5.567   1.133  0.0529  0.9988  0.3614
 6796SOL     OW26955   6.086   4.588   5.878  0.2571  0.4231  0.2714
 6796SOL    HW226956   6.162   4.532   5.861  0.4687  0.4312  1.1641
 6796SOL    HW326957   6.053   4.560   5.963 -1.4405 -0.3340 -0.5944
 6796SOL    MW426958   6.092   4.577   5.887 -0.1196 -0.1622  0.7644
 6797SOL     OW26959   5.180   2.622   3.574 -0.5761 -0.6765 -0.1986
 6797SOL    HW226960   5.184   2.532   3.606 -0.1702 -0.7786 -0.5268
 6797SOL    HW326961   5.102   2.626   3.520 -0.7597 -0.7489  0.0585
 6797SOL    MW426962   5.170   2.611   3.571  0.4016 -0.1607 -0.1863
 6798SOL     OW26963   5.268   6.080   3.357 -0.3942 -0.0571 -0.0324
 6798SOL    HW226964   5.355   6.108   3.384 -0.9629  0.6950  1.0854
 6798SOL    HW326965   5.211   6.154   3.379 -1.5169 -1.0347  0.4382
 6798SOL    MW426966   5.272   6.094   3.363 -0.3958  0.6631  0.1369
 6799SOL     OW26967   4.224   6.381   1.155 -0.6854  0.6087 -0.0139
 6799SOL    HW226968   4.266   6.449   1.209  2.5900 -2.6455  2.0544
 6799SOL    HW326969   4.135   6.376   1.189 -0.9823  3.5254 -0.0608
 6799SOL    MW426970   4.218   6.389   1.167  0.3190  0.3281  0.6703
 6800SOL     OW26971   1.024   2.097   5.694  0.0414 -0.0582  0.2513
 6800SOL    HW226972   1.014   2.168   5.631 -0.9434 -1.6045 -1.4365
 6800SOL    HW326973   1.115   2.104   5.723  1.7337 -1.1887 -3.9056
 6800SOL    MW426974   1.034   2.107   5.689 -0.2619 -0.3666  0.5377
 6801SOL     OW26975   3.820   2.799   5.295 -0.2574 -0.2251  0.1327
 6801SOL    HW226976   3.896   2.749   5.265  0.8716  2.1123 -1.2744
 6801SOL    HW326977   3.745   2.747   5.269  0.8334 -1.3143 -1.0108
 6801SOL    MW426978   3.820   2.786   5.287 -0.2310 -0.2647  0.3790
 6802SOL     OW26979   2.188   3.390   4.300 -0.2928 -0.5344  0.1227
 6802SOL    HW226980   2.112   3.445   4.283 -0.4447 -0.0857  2.0639
 6802SOL    HW326981   2.258   3.427   4.246 -0.6826  0.8929  0.5685
 6802SOL    MW426982   2.187   3.402   4.291 -0.7046 -0.1579  0.7775
 6803SOL     OW26983   0.697   3.533   2.820  0.4706  0.4285  0.1832
 6803SOL    HW226984   0.707   3.626   2.801 -0.4269  0.4154 -0.4128
 6803SOL    HW326985   0.703   3.526   2.915 -0.0172  1.1673  0.2681
 6803SOL    MW426986   0.700   3.544   2.830  0.0113 -0.2634 -0.4334
 6804SOL     OW26987   3.112   2.257   3.898 -0.4346 -0.0772  0.5197
 6804SOL    HW226988   3.025   2.234   3.928 -0.2960  0.1416  1.1087
 6804SOL    HW326989   3.119   2.218   3.811 -0.6865 -1.1217  0.9484
 6804SOL    MW426990   3.102   2.249   3.890 -0.0678 -0.0077  0.2616
 6805SOL     OW26991   3.252   5.789   0.928  0.2996  0.1096 -0.4392
 6805SOL    HW226992   3.306   5.836   0.991 -0.3646 -0.7402  0.8029
 6805SOL    HW326993   3.309   5.719   0.896  0.2483 -0.2160  0.1676
 6805SOL    MW426994   3.267   5.786   0.932 -0.3781 -0.2359  0.0470
 6806SOL     OW26995   4.741   0.276   5.111  0.1818  0.7404 -0.7811
 6806SOL    HW226996   4.696   0.198   5.077  0.1600  0.7277 -0.7242
 6806SOL    HW326997   4.777   0.247   5.195  1.5633  0.3176 -1.4899
 6806SOL    MW426998   4.740   0.262   5.118  0.3167  0.3842 -0.1868
 6807SOL     OW26999   6.308   1.596   4.518 -0.1665 -0.5234 -0.1326
 6807SOL    HW227000   6.358   1.530   4.566 -1.6534 -0.6573  1.3271
 6807SOL    HW327001   6.266   1.547   4.447  0.8626 -0.6139 -0.6946
 6807SOL    MW427002   6.309   1.581   4.515 -0.1253 -0.1768  0.0140
 6808SOL     OW27003   4.762   5.969   2.340 -0.1041 -0.1159 -0.0312
 6808SOL    HW227004   4.824   6.042   2.347 -1.3868  1.0613 -0.6538
 6808SOL    HW327005   4.791   5.921   2.262 -1.2239  1.6980 -1.6427
 6808SOL    MW427006   4.774   5.973   2.331  0.3741  0.4490  0.3354
 6809SOL     OW27007   2.861   5.797   1.269 -0.1044 -0.9094 -0.0845
 6809SOL    HW227008   2.790   5.854   1.240  0.9368 -0.4126 -1.8407
 6809SOL    HW327009   2.837   5.770   1.357 -0.8446  1.9321  0.6739
 6809SOL    MW427010   2.849   5.801   1.277  0.7146 -0.0585  0.4968
 6810SOL     OW27011   3.986   4.818   0.129 -0.7428  0.0612 -0.1989
 6810SOL    HW227012   4.002   4.814   0.223 -1.5476  0.2708 -0.0485
 6810SOL    HW327013   3.894   4.840   0.121 -1.3532 -2.4591 -1.0320
 6810SOL    MW427014   3.976   4.821   0.140  0.4723  0.2844 -0.1853
 6811SOL     OW27015   1.217   0.678   3.928  0.1778  0.1900  0.0220
 6811SOL    HW227016   1.252   0.609   3.871 -0.0738 -0.2532  0.3922
 6811SOL    HW327017   1.139   0.709   3.882 -1.1033 -1.4557  0.9584
 6811SOL    MW427018   1.211   0.673   3.914  0.3133 -0.2614 -0.7783
 6812SOL     OW27019   4.825   0.372   3.446  0.4986 -0.8859 -0.3442
 6812SOL    HW227020   4.825   0.286   3.404  0.0525  0.0535 -2.4037
 6812SOL    HW327021   4.848   0.433   3.376 -1.1481  0.8940  0.5637
 6812SOL    MW427022   4.828   0.368   3.431 -0.5853  0.0175  0.4374
 6813SOL     OW27023   4.296   6.259   5.806  0.4713 -0.4175 -0.4039
 6813SOL    HW227024   4.354   6.317   5.855 -2.9992  1.7460  1.6231
 6813SOL    HW327025   4.290   6.179   5.859 -0.5288  0.5106  0.9437
 6813SOL    MW427026   4.303   6.256   5.819  0.2044  0.5469 -0.5770
 6814SOL     OW27027   4.103   1.029   2.015  0.3956  0.4418  0.5157
 6814SOL    HW227028   4.177   0.977   1.987 -0.7981 -0.8269 -0.4315
 6814SOL    HW327029   4.138   1.117   2.029  1.7741  0.2429 -1.4034
 6814SOL    MW427030   4.117   1.034   2.013  0.2114 -0.0539  0.3317
 6815SOL     OW27031   1.411   4.596   2.415  0.0542 -0.0818 -0.0682
 6815SOL    HW227032   1.460   4.594   2.497 -1.0340  0.2775  0.6051
 6815SOL    HW327033   1.434   4.681   2.375  0.2826 -0.0906  0.0434
 6815SOL    MW427034   1.420   4.607   2.420  0.2255 -0.5840  0.1390
 6816SOL     OW27035   1.330   1.435   2.093  0.1999  0.0824 -0.0509
 6816SOL    HW227036   1.336   1.434   2.189  1.4070  0.9319 -0.0889
 6816SOL    HW327037   1.311   1.345   2.069  0.5483 -0.2772  0.9608
 6816SOL    MW427038   1.328   1.423   2.103  0.1011  0.5307 -0.4477
 6817SOL     OW27039   4.388   0.860   0.254 -0.0929 -0.1232 -0.2926
 6817SOL    HW227040   4.422   0.944   0.225  1.9044 -1.2242 -1.3586
 6817SOL    HW327041   4.426   0.847   0.340 -1.4072  0.5694  0.4292
 6817SOL    MW427042   4.397   0.869   0.261  0.3766 -0.3547  0.5987
 6818SOL     OW27043   3.176   5.324   1.213  0.2809 -0.1304 -0.1884
 6818SOL    HW227044   3.098   5.320   1.267  1.2773  1.5609  1.5444
 6818SOL    HW327045   3.223   5.402   1.245  0.6658  1.4155 -3.9281
 6818SOL    MW427046   3.172   5.334   1.224 -0.5466  0.0826 -0.2230
 6819SOL     OW27047   1.735   5.939   0.441 -0.4819  0.4533  0.0028
 6819SOL    HW227048   1.661   5.997   0.458 -1.3256 -1.0556  1.8888
 6819SOL    HW327049   1.695   5.852   0.430  0.9692 -0.3718  0.9615
 6819SOL    MW427050   1.720   5.935   0.442 -0.4034  0.4498  0.0832
 6820SOL     OW27051   5.436   3.631   3.515  0.1101  0.3364 -0.2697
 6820SOL    HW227052   5.467   3.623   3.425 -0.5581  1.2052 -0.5866
 6820SOL    HW327053   5.490   3.569   3.564  1.9582  1.3729 -0.8803
 6820SOL    MW427054   5.447   3.621   3.509  0.0689  0.0578  0.0136
 6821SOL     OW27055   4.565   2.234   4.408 -0.1749  0.3358  0.0903
 6821SOL    HW227056   4.484   2.195   4.440  0.5926  0.1191  1.8971
 6821SOL    HW327057   4.589   2.298   4.475  1.5264 -0.1439 -0.0008
 6821SOL    MW427058   4.557   2.237   4.421  0.1366 -0.4649 -0.0614
 6822SOL     OW27059   1.418   4.569   0.668 -0.2209  0.2158  0.2396
 6822SOL    HW227060   1.400   4.608   0.582  0.1587  0.0179  0.0678
 6822SOL    HW327061   1.511   4.547   0.665 -0.6288 -1.6450 -0.0575
 6822SOL    MW427062   1.428   4.571   0.656  0.1190 -0.1219 -0.2351
 6823SOL     OW27063   2.511   4.803   5.803  0.0546 -0.0400 -0.4912
 6823SOL    HW227064   2.604   4.781   5.809  0.0618  0.3569  2.1236
 6823SOL    HW327065   2.470   4.725   5.766  0.9230 -2.0940  2.5004
 6823SOL    MW427066   2.518   4.790   5.799  0.5545 -0.1718 -0.4766
 6824SOL     OW27067   5.865   1.332   3.407 -0.0766  0.2422  0.2227
 6824SOL    HW227068   5.819   1.329   3.491 -0.8851  1.4505 -0.1513
 6824SOL    HW327069   5.835   1.254   3.360  0.5381 -0.5532  1.1170
 6824SOL    MW427070   5.855   1.322   3.412 -0.1200  1.0521  0.0062
 6825SOL     OW27071   6.092   4.320   2.695  0.1386  0.1319 -0.3189
 6825SOL    HW227072   6.048   4.395   2.735 -1.1573 -0.9905  0.4916
 6825SOL    HW327073   6.175   4.313   2.742 -0.8546 -0.4529  1.4715
 6825SOL    MW427074   6.097   4.329   2.707 -0.1893 -0.0840 -0.3368
 6826SOL     OW27075   2.734   5.965   3.616 -0.3148 -0.1163  0.0255
 6826SOL    HW227076   2.666   5.898   3.625 -1.2538  0.7673 -0.2501
 6826SOL    HW327077   2.813   5.916   3.594 -0.3438 -1.3689  2.4140
 6826SOL    MW427078   2.735   5.950   3.614  0.7176  0.4855 -0.3959
 6827SOL     OW27079   0.924   3.841   2.086 -0.1891  0.0939 -0.5093
 6827SOL    HW227080   0.837   3.881   2.093  0.5712  1.8562 -0.4304
 6827SOL    HW327081   0.975   3.905   2.036  1.4807 -0.1165  0.8279
 6827SOL    MW427082   0.919   3.855   2.080 -0.1319  0.7345  0.3463
 6828SOL     OW27083   3.977   2.430   4.076 -0.0354  0.0890 -0.3060
 6828SOL    HW227084   3.910   2.363   4.084 -0.0468 -0.2042 -2.3829
 6828SOL    HW327085   3.944   2.491   4.010 -1.2315  3.7332  3.2275
 6828SOL    MW427086   3.964   2.430   4.069 -0.0809 -0.4405 -0.4181
 6829SOL     OW27087   6.180   1.456   4.319 -0.1812 -0.4927 -0.5911
 6829SOL    HW227088   6.254   1.443   4.259  1.1423 -1.2000  1.1103
 6829SOL    HW327089   6.142   1.368   4.328 -0.1616 -0.4596 -0.1598
 6829SOL    MW427090   6.185   1.442   4.312  0.5586 -0.2506 -0.3122
 6830SOL     OW27091   4.009   4.378   5.216 -0.8568  0.2567 -0.1361
 6830SOL    HW227092   3.969   4.306   5.264 -0.2927  0.0425  0.0171
 6830SOL    HW327093   3.946   4.450   5.223 -1.3343 -0.1629 -0.1355
 6830SOL    MW427094   3.996   4.378   5.223 -0.1139 -0.1757 -0.0689
 6831SOL     OW27095   5.643   3.730   5.921 -0.3987 -0.3301  0.4889
 6831SOL    HW227096   5.723   3.699   5.878  0.0598 -0.6842  1.5423
 6831SOL    HW327097   5.575   3.723   5.854  0.5283  0.3904 -0.5637
 6831SOL    MW427098   5.645   3.725   5.907  0.2896  0.3744 -0.5947
 6832SOL     OW27099   2.053   4.664   5.215  0.3582  0.1883  0.2290
 6832SOL    HW227100   2.148   4.649   5.221  0.1068 -2.2842 -0.4977
 6832SOL    HW327101   2.043   4.718   5.137  1.0725 -2.5694 -1.9696
 6832SOL    MW427102   2.065   4.669   5.205 -0.0388 -0.5677 -0.3672
 6833SOL     OW27103   2.345   5.311   1.119 -0.9501  0.4087 -0.3562
 6833SOL    HW227104   2.287   5.236   1.126  0.5319 -1.0794 -2.4801
 6833SOL    HW327105   2.392   5.313   1.202 -1.9609 -0.1827  0.2428
 6833SOL    MW427106   2.344   5.301   1.131 -0.2994  0.5117  0.4401
 6834SOL     OW27107   5.903   2.142   4.649 -0.4311  0.0153  0.5064
 6834SOL    HW227108   5.885   2.070   4.709 -0.7234 -0.2924  0.0599
 6834SOL    HW327109   5.946   2.208   4.703 -1.5133  0.1271  1.2650
 6834SOL    MW427110   5.906   2.141   4.664 -0.1053  0.7626  0.4660
 6835SOL     OW27111   3.844   1.437   4.712 -0.0849  0.1864  0.4898
 6835SOL    HW227112   3.892   1.486   4.779  1.0758  1.3186 -1.0915
 6835SOL    HW327113   3.857   1.487   4.632 -1.0668 -1.3519 -0.6906
 6835SOL    MW427114   3.852   1.450   4.710  0.0075 -0.8452  0.2613
 6836SOL     OW27115   0.034   0.621   4.349 -0.0957  0.5984  0.3379
 6836SOL    HW227116   0.091   0.568   4.404 -0.2409  1.4393  1.3441
 6836SOL    HW327117  -0.010   0.559   4.292 -0.9971 -0.5029  2.1494
 6836SOL    MW427118   0.035   0.606   4.348  0.7054  0.0452  0.5038
 6837SOL     OW27119   4.173   1.280   2.073 -0.0452 -0.0215 -0.3554
 6837SOL    HW227120   4.170   1.332   1.993  0.7893 -0.1042 -0.4429
 6837SOL    HW327121   4.099   1.312   2.125  1.9389  3.1924  0.7825
 6837SOL    MW427122   4.163   1.291   2.069 -0.6517  0.0032 -0.0188
 6838SOL     OW27123   2.170   3.770   4.609 -0.2183 -1.0134  0.4077
 6838SOL    HW227124   2.206   3.684   4.588 -0.8263 -1.2479  0.3076
 6838SOL    HW327125   2.187   3.822   4.530  0.4222 -0.9458  0.5836
 6838SOL    MW427126   2.177   3.766   4.595  0.2931  0.9798  0.3319
 6839SOL     OW27127   4.335   0.482   1.881  0.1192  0.2664  0.1870
 6839SOL    HW227128   4.425   0.513   1.895  0.2833 -0.0714 -0.1115
 6839SOL    HW327129   4.285   0.523   1.952  0.3999  0.9187  0.0233
 6839SOL    MW427130   4.340   0.492   1.892 -0.2339  0.1839 -0.4108
 6840SOL     OW27131   3.004   5.855   1.675 -0.5644  0.6303 -0.4043
 6840SOL    HW227132   3.005   5.943   1.637  1.9010  1.1268  0.6128
 6840SOL    HW327133   3.003   5.870   1.769 -0.5665 -0.4323 -0.2265
 6840SOL    MW427134   3.004   5.869   1.682 -0.5689  0.0083 -0.6122
 6841SOL     OW27135   0.087   3.075   3.174  0.1053 -0.1454 -0.4350
 6841SOL    HW227136   0.007   3.099   3.128 -1.1547 -1.4792  0.9674
 6841SOL    HW327137   0.106   3.150   3.229  0.5049  0.6439 -1.6018
 6841SOL    MW427138   0.079   3.088   3.175  0.5735 -0.3416 -0.1748
 6842SOL     OW27139   2.932   6.008   3.307  0.4974 -0.0124  0.1678
 6842SOL    HW227140   3.008   5.971   3.353  1.0581 -1.6689 -1.9478
 6842SOL    HW327141   2.875   5.933   3.291 -0.4910  0.8293 -0.3402
 6842SOL    MW427142   2.935   5.993   3.311 -0.4706  0.2315 -0.3609
 6843SOL     OW27143   3.897   0.082   4.966  0.4948  0.1960 -0.3284
 6843SOL    HW227144   3.922  -0.009   4.980 -0.2094  0.0236 -0.1599
 6843SOL    HW327145   3.960   0.115   4.902  2.4808  0.3943  1.6195
 6843SOL    MW427146   3.908   0.074   4.960 -0.2494 -0.0489  0.1557
 6844SOL     OW27147   6.242   5.897   4.376  0.0201  0.2846  0.4242
 6844SOL    HW227148   6.153   5.909   4.407  0.5174 -1.9990  3.0794
 6844SOL    HW327149   6.262   5.805   4.392  2.2630  0.2307 -1.8827
 6844SOL    MW427150   6.233   5.887   4.382 -0.2350 -0.1496 -0.2023
 6845SOL     OW27151   3.392   4.684   4.118  0.6141  0.2920 -0.5883
 6845SOL    HW227152   3.455   4.697   4.047 -0.8634 -1.5061 -2.3763
 6845SOL    HW327153   3.339   4.764   4.117  0.9943  0.5455 -1.1124
 6845SOL    MW427154   3.393   4.697   4.108 -0.3403  0.0068 -0.1548
 6846SOL     OW27155   4.831   3.562   1.392  0.4704 -0.3823  0.2983
 6846SOL    HW227156   4.763   3.595   1.450 -0.6038 -1.0678 -0.5363
 6846SOL    HW327157   4.913   3.586   1.436 -0.2856 -0.9845  2.1606
 6846SOL    MW427158   4.833   3.569   1.406  0.2295 -0.4608  0.5426
 6847SOL     OW27159   3.618   2.240   4.491 -0.1169 -0.5451  0.0318
 6847SOL    HW227160   3.596   2.186   4.415  0.8228 -2.6587  1.1859
 6847SOL    HW327161   3.543   2.231   4.549  0.7369 -2.0939  0.9634
 6847SOL    MW427162   3.605   2.232   4.488 -0.5131 -0.3646  0.5839
 6848SOL     OW27163   3.791   0.263   0.921 -0.2442 -0.1697 -0.4271
 6848SOL    HW227164   3.864   0.238   0.864  0.0916 -1.2457  0.4282
 6848SOL    HW327165   3.719   0.282   0.860  0.6183  0.5422 -1.2696
 6848SOL    MW427166   3.791   0.262   0.905  0.3458  0.4438 -0.4086
 6849SOL     OW27167   3.046   1.459   0.573  0.3862 -0.2744  0.4949
 6849SOL    HW227168   3.138   1.437   0.588  1.1640  2.5462  0.3092
 6849SOL    HW327169   3.031   1.438   0.481 -0.4276 -4.4375  1.3409
 6849SOL    MW427170   3.056   1.453   0.563  0.0007 -0.2777  0.1530
 6850SOL     OW27171   2.565   3.731   4.117 -0.0012 -0.2033 -0.5367
 6850SOL    HW227172   2.615   3.810   4.136  1.9463 -1.7010  0.9129
 6850SOL    HW327173   2.476   3.751   4.146  0.7808  0.9587  1.1703
 6850SOL    MW427174   2.560   3.744   4.123 -0.6686  0.1928  0.4430
 6851SOL     OW27175   2.911   3.039   6.166  0.8281 -0.2950  0.5952
 6851SOL    HW227176   2.843   2.981   6.200  1.1461 -0.7655  0.4356
 6851SOL    HW327177   2.984   3.028   6.226  0.4505  0.9244  1.3171
 6851SOL    MW427178   2.911   3.030   6.178  0.2066 -0.3439 -0.0463
 6852SOL     OW27179   3.737   1.738   3.099  0.1397  0.3884 -0.2258
 6852SOL    HW227180   3.745   1.804   3.030 -0.4564  0.3726 -0.3178
 6852SOL    HW327181   3.827   1.715   3.121  0.3411  0.2620 -1.1214
 6852SOL    MW427182   3.750   1.744   3.093 -0.0666  0.1607  0.3142
 6853SOL     OW27183   5.257   0.497   1.720 -0.5698  0.1166  0.2004
 6853SOL    HW227184   5.230   0.589   1.724  1.5637  0.9437 -1.9137
 6853SOL    HW327185   5.256   0.476   1.626  0.2341 -1.6290  0.5380
 6853SOL    MW427186   5.253   0.506   1.708 -0.3212 -0.2064  0.2115
 6854SOL     OW27187   0.675   5.855   0.141  0.2262 -0.5488  0.0061
 6854SOL    HW227188   0.733   5.809   0.081 -0.6120 -1.0860 -0.4103
 6854SOL    HW327189   0.654   5.791   0.209 -0.6288 -0.6711 -0.3618
 6854SOL    MW427190   0.680   5.841   0.142 -0.0419 -0.6132  0.1548
 6855SOL     OW27191   0.150   0.672   6.079  0.1567  0.4633 -0.4826
 6855SOL    HW227192   0.079   0.681   6.015  1.4865 -0.1723 -2.1085
 6855SOL    HW327193   0.228   0.702   6.033  1.5028 -1.7877  0.1807
 6855SOL    MW427194   0.151   0.677   6.065  0.0220 -0.2737  0.4948
 6856SOL     OW27195   5.996   0.256   4.731  0.2382 -0.3869 -0.3143
 6856SOL    HW227196   5.998   0.335   4.677 -0.7931 -0.2575 -0.1780
 6856SOL    HW327197   5.903   0.239   4.747  0.4954 -0.7776  0.9032
 6856SOL    MW427198   5.984   0.264   4.726  0.2652 -0.2019  0.1408
 6857SOL     OW27199   2.966   3.762   4.579  0.3956  0.3987 -0.0806
 6857SOL    HW227200   2.877   3.780   4.548 -0.5613 -1.6410  1.2481
 6857SOL    HW327201   2.998   3.695   4.519  0.8854  0.8251 -0.2983
 6857SOL    MW427202   2.958   3.755   4.567  0.0096  0.1659 -0.0085
 6858SOL     OW27203   5.844   3.423   3.650  0.7417 -0.2489 -0.2479
 6858SOL    HW227204   5.920   3.456   3.699  0.1292  0.6203  0.1303
 6858SOL    HW327205   5.835   3.483   3.576 -0.1206  0.1771  0.2025
 6858SOL    MW427206   5.853   3.435   3.647  0.1864  0.2819 -0.1193
 6859SOL     OW27207   5.055   1.802   5.313  0.1624 -0.3288 -0.0945
 6859SOL    HW227208   5.006   1.884   5.311 -0.5481 -0.7633 -1.9516
 6859SOL    HW327209   5.141   1.826   5.346 -0.5267  0.8751  0.8874
 6859SOL    MW427210   5.060   1.816   5.317 -0.1935  0.8345  0.1964
 6860SOL     OW27211   6.317   2.198   1.971  0.5774  0.1677 -0.0265
 6860SOL    HW227212   6.222   2.206   1.977  0.3645 -1.7408 -0.0683
 6860SOL    HW327213   6.349   2.211   2.060  0.1850 -0.0719  0.1503
 6860SOL    MW427214   6.309   2.201   1.983 -0.2546 -0.1214 -0.1012
 6861SOL     OW27215   2.728   2.459   5.020  0.1518 -0.2339 -0.4800
 6861SOL    HW227216   2.669   2.443   4.946 -2.0681  1.4041  0.7973
 6861SOL    HW327217   2.794   2.518   4.985 -0.1893 -0.3960 -1.4388
 6861SOL    MW427218   2.729   2.465   5.006  0.1149  0.0228 -0.7026
 6862SOL     OW27219   1.038   4.513   6.267 -0.1520  0.1801 -0.4237
 6862SOL    HW227220   1.039   4.508   6.363 -1.1568 -0.3407 -0.4234
 6862SOL    HW327221   1.119   4.470   6.240  1.7423  3.0227  0.2413
 6862SOL    MW427222   1.049   4.507   6.276 -0.1318  0.5793  0.6229
 6863SOL     OW27223   3.281   5.470   6.240  0.0103 -0.4058  0.6510
 6863SOL    HW227224   3.282   5.548   6.295 -0.4703 -0.9503  1.4479
 6863SOL    HW327225   3.189   5.459   6.216 -0.0647 -1.2416  1.2971
 6863SOL    MW427226   3.269   5.479   6.244  0.0614 -0.6171  0.4376
 6864SOL     OW27227   5.103   2.626   2.200  0.2963 -0.1331  0.3333
 6864SOL    HW227228   5.123   2.713   2.165 -0.0164  0.2780  1.1396
 6864SOL    HW327229   5.087   2.642   2.293  0.1668 -1.0502  0.4689
 6864SOL    MW427230   5.104   2.640   2.207  0.4189  0.4053 -0.0981
 6865SOL     OW27231   0.958   0.347   1.312  0.0683 -0.3158  0.2500
 6865SOL    HW227232   0.931   0.366   1.402  1.7103  1.2223  0.4679
 6865SOL    HW327233   0.892   0.388   1.257  0.2212  0.6346  0.7673
 6865SOL    MW427234   0.946   0.355   1.317 -0.0049 -0.4442 -0.6578
 6866SOL     OW27235   1.943   2.871   5.869  0.0554 -0.0639  0.1402
 6866SOL    HW227236   1.937   2.955   5.915 -0.0250  1.8674 -3.0855
 6866SOL    HW327237   2.037   2.852   5.867  0.5223  1.9609 -2.1719
 6866SOL    MW427238   1.955   2.880   5.875  0.4674 -0.0589  0.6125
 6867SOL     OW27239   3.235   1.210   5.329  0.2264 -0.6142 -0.6076
 6867SOL    HW227240   3.190   1.175   5.406  0.4778  1.9257  0.7752
 6867SOL    HW327241   3.327   1.215   5.355  0.4989 -0.7396 -1.5006
 6867SOL    MW427242   3.242   1.206   5.343  0.5322  0.0284  0.2379
 6868SOL     OW27243   2.182   2.207   1.569  0.5371  0.1140  0.4951
 6868SOL    HW227244   2.125   2.138   1.605 -1.2406  0.5882 -1.2658
 6868SOL    HW327245   2.169   2.281   1.628  0.5083 -0.2496  0.9561
 6868SOL    MW427246   2.173   2.208   1.582  0.2816 -0.3163  0.1093
 6869SOL     OW27247   2.296   4.805   0.984 -0.9724  0.1505 -0.2844
 6869SOL    HW227248   2.265   4.895   0.975 -1.9992 -0.3247 -1.9049
 6869SOL    HW327249   2.230   4.752   0.939  0.3317 -1.2647 -0.6190
 6869SOL    MW427250   2.284   4.810   0.977  0.0239 -0.2180  0.1676
 6870SOL     OW27251   0.096   2.010   3.522 -0.0819 -0.3398  0.3403
 6870SOL    HW227252   0.023   2.032   3.465  0.6676  0.9857 -0.1352
 6870SOL    HW327253   0.084   1.917   3.541 -0.1749 -0.9289 -2.2311
 6870SOL    MW427254   0.085   2.001   3.517 -0.1601 -0.8298 -0.2938
 6871SOL     OW27255   1.051   0.770   1.389 -0.0270  0.2452 -0.3856
 6871SOL    HW227256   0.965   0.746   1.421 -0.2938 -0.4266 -1.5473
 6871SOL    HW327257   1.093   0.814   1.463 -1.5362  1.0232  0.0465
 6871SOL    MW427258   1.045   0.773   1.403  0.5197  0.3848  0.7804
 6872SOL     OW27259   0.231   2.255   6.238  0.3689  0.1380 -0.4510
 6872SOL    HW227260   0.220   2.351   6.238 -1.2273 -0.0073  0.4058
 6872SOL    HW327261   0.156   2.223   6.188 -0.3176 -0.7455  1.0844
 6872SOL    MW427262   0.220   2.264   6.231  0.6607 -0.3273 -0.1314
 6873SOL     OW27263   0.484   0.665   0.913 -0.5215 -0.2492  0.0728
 6873SOL    HW227264   0.421   0.719   0.865 -0.7243 -0.1948  0.3961
 6873SOL    HW327265   0.529   0.615   0.846 -0.2153  0.4493 -0.2472
 6873SOL    MW427266   0.482   0.666   0.898 -0.7198 -0.2556  0.0859
 6874SOL     OW27267   5.129   4.678   5.932 -0.5021 -0.6425  0.2842
 6874SOL    HW227268   5.180   4.632   5.999 -0.1729  1.0776  1.2864
 6874SOL    HW327269   5.084   4.747   5.981  0.2465  1.0668 -1.3447
 6874SOL    MW427270   5.130   4.681   5.948  0.1787 -0.1547  0.0874
 6875SOL     OW27271   6.218   5.162   1.400 -0.2071 -0.0683  0.5596
 6875SOL    HW227272   6.261   5.083   1.369 -1.3692 -0.9169  1.0557
 6875SOL    HW327273   6.277   5.233   1.374  1.1235 -1.1257  0.6010
 6875SOL    MW427274   6.231   5.161   1.392  0.0985  0.1653  0.5339
 6876SOL     OW27275   0.564   1.748   4.936 -0.3699  0.6070  0.4295
 6876SOL    HW227276   0.620   1.758   4.859  0.5508  0.3070  1.0356
 6876SOL    HW327277   0.617   1.781   5.009 -0.7702 -0.1822  1.1008
 6876SOL    MW427278   0.578   1.754   4.935  0.3007 -0.0615 -0.0376
 6877SOL     OW27279   1.836   0.636   2.621  0.0847  0.5377  0.5689
 6877SOL    HW227280   1.868   0.693   2.551 -0.0656 -0.1724 -0.0907
 6877SOL    HW327281   1.756   0.597   2.586  0.8321 -1.0251  0.5019
 6877SOL    MW427282   1.830   0.639   2.607 -0.9200  0.3965  0.4716
 6878SOL     OW27283   0.591   1.882   1.664 -0.4348  0.2007  0.3829
 6878SOL    HW227284   0.607   1.976   1.650 -2.7701  0.2882 -3.0113
 6878SOL    HW327285   0.655   1.839   1.608 -0.1366 -0.2302  1.0420
 6878SOL    MW427286   0.602   1.889   1.655 -0.4515 -0.6534  0.0996
 6879SOL     OW27287   2.308   5.898   1.640 -0.1406 -0.8027  0.2099
 6879SOL    HW227288   2.308   5.959   1.714 -0.8174 -0.6351  0.0812
 6879SOL    HW327289   2.222   5.855   1.645  0.0533 -1.2300 -0.1170
 6879SOL    MW427290   2.296   5.901   1.650  0.3363  0.2002  0.1043
 6880SOL     OW27291   5.844   3.642   5.542  0.3707 -0.1040  0.0873
 6880SOL    HW227292   5.789   3.579   5.494  1.2572  0.0861 -1.2504
 6880SOL    HW327293   5.933   3.610   5.529  0.6997  0.4908  0.8381
 6880SOL    MW427294   5.848   3.629   5.534  0.4053  0.3502  0.1606
 6881SOL     OW27295   1.440   0.491   3.272  0.5871  0.0797  0.0900
 6881SOL    HW227296   1.407   0.555   3.335 -0.3206 -0.2142 -0.0635
 6881SOL    HW327297   1.419   0.406   3.311 -0.2871 -0.1067 -0.7414
 6881SOL    MW427298   1.433   0.488   3.285  0.0045 -0.1174  0.2164
 6882SOL     OW27299   5.039   2.336   5.895  0.2579 -0.2258 -0.4232
 6882SOL    HW227300   5.069   2.369   5.980  0.7002  1.6253 -1.2383
 6882SOL    HW327301   5.117   2.341   5.839 -0.1499 -0.9207 -1.0678
 6882SOL    MW427302   5.053   2.341   5.899 -0.8294 -0.4778  0.4188
 6883SOL     OW27303   5.851   4.653   2.613 -0.0594  0.1081  0.0077
 6883SOL    HW227304   5.789   4.598   2.660  1.1090 -1.3871 -0.0891
 6883SOL    HW327305   5.936   4.631   2.651  0.8559 -0.6525 -2.2481
 6883SOL    MW427306   5.854   4.642   2.624 -0.7459 -0.0778 -0.4419
 6884SOL     OW27307   0.223   5.760   4.924  0.2094  0.2087 -0.4403
 6884SOL    HW227308   0.272   5.771   4.842  1.5839 -2.3534 -0.0797
 6884SOL    HW327309   0.287   5.777   4.993  0.0455 -0.9979  0.0459
 6884SOL    MW427310   0.238   5.764   4.922  0.6065  0.1858  0.3447
 6885SOL     OW27311   4.756   1.821   2.510 -0.2702 -0.3136 -0.6222
 6885SOL    HW227312   4.717   1.739   2.539 -1.4186 -0.0021 -1.2289
 6885SOL    HW327313   4.832   1.833   2.567 -1.9938 -0.1039  1.7552
 6885SOL    MW427314   4.761   1.812   2.521 -0.5325  0.8927  0.0582
 6886SOL     OW27315   2.219   0.608   0.136 -0.0287  0.1397 -0.7073
 6886SOL    HW227316   2.275   0.565   0.072  0.2425 -2.7739  1.2898
 6886SOL    HW327317   2.131   0.577   0.116 -0.1156  0.1829 -0.4016
 6886SOL    MW427318   2.215   0.598   0.125 -0.4113 -0.5622 -0.4618
 6887SOL     OW27319   0.314   4.784   4.539 -0.5050  0.0033  0.4038
 6887SOL    HW227320   0.359   4.704   4.564  1.1017  0.0855 -1.8947
 6887SOL    HW327321   0.282   4.767   4.450 -1.1089  1.5320  0.2953
 6887SOL    MW427322   0.315   4.772   4.530 -0.0279  0.6165 -0.0700
 6888SOL     OW27323   2.754   2.098   4.537  0.5540 -0.3787 -0.1697
 6888SOL    HW227324   2.782   2.069   4.624 -0.0719  1.2650  0.6367
 6888SOL    HW327325   2.834   2.134   4.498  0.2738  1.7848  1.0443
 6888SOL    MW427326   2.768   2.099   4.543  0.1760  0.3359  0.2337
 6889SOL     OW27327   2.673   1.847   3.953 -0.4834  0.1460  0.6092
 6889SOL    HW227328   2.605   1.913   3.945  0.4931  1.0582 -0.6623
 6889SOL    HW327329   2.679   1.829   4.046 -1.3079  1.2942  0.8978
 6889SOL    MW427330   2.665   1.854   3.964  0.2377  0.2382  0.1473
 6890SOL     OW27331   3.826   0.711   0.109 -0.0354  0.2713  0.1977
 6890SOL    HW227332   3.805   0.757   0.029  0.1476  2.1584  1.1794
 6890SOL    HW327333   3.893   0.765   0.152  0.1847 -0.8940  1.4223
 6890SOL    MW427334   3.832   0.724   0.104 -0.4068 -0.2921  0.3795
 6891SOL     OW27335   4.949   3.622   3.138  0.2408  0.5692  0.0518
 6891SOL    HW227336   4.986   3.591   3.055  0.6675  2.4404 -0.5000
 6891SOL    HW327337   4.898   3.548   3.170  1.2441 -0.7033 -1.1517
 6891SOL    MW427338   4.947   3.608   3.131  0.2102 -0.2254 -0.2521
 6892SOL     OW27339   1.360   2.603   6.227  0.3982  0.2787  0.7616
 6892SOL    HW227340   1.415   2.537   6.184  0.0736  0.7691 -0.4251
 6892SOL    HW327341   1.314   2.554   6.296  0.0524 -0.7762 -0.1930
 6892SOL    MW427342   1.361   2.588   6.231 -0.9518  0.3110 -0.2171
 6893SOL     OW27343   5.414   5.797   3.559  0.0324  0.3381  0.0639
 6893SOL    HW227344   5.500   5.815   3.595 -0.3077 -0.1301  1.1578
 6893SOL    HW327345   5.355   5.855   3.608 -0.4786 -0.5200  0.4879
 6893SOL    MW427346   5.417   5.807   3.570 -0.0784 -0.2384 -0.4801
 6894SOL     OW27347   4.578   0.285   4.753 -0.2919 -0.1489 -0.2706
 6894SOL    HW227348   4.531   0.367   4.764 -1.8892 -0.7481 -2.0563
 6894SOL    HW327349   4.586   0.274   4.658  1.6705 -1.1050 -0.0515
 6894SOL    MW427350   4.573   0.294   4.742 -0.1760  0.7003 -0.0651
 6895SOL     OW27351   6.257   1.102   2.032 -0.1161  0.5468  0.7054
 6895SOL    HW227352   6.283   1.023   2.080 -1.8596 -0.5058 -0.0196
 6895SOL    HW327353   6.239   1.167   2.100 -0.6435 -0.3206  1.4074
 6895SOL    MW427354   6.258   1.101   2.047  0.0106 -0.0471  0.4036
 6896SOL     OW27355   6.185   4.764   1.353  0.2490  0.2075 -0.2202
 6896SOL    HW227356   6.249   4.727   1.413  1.8860  2.2220 -0.6389
 6896SOL    HW327357   6.109   4.782   1.408  1.2186  0.7564  0.9796
 6896SOL    MW427358   6.183   4.761   1.368 -1.0479  0.0288 -0.9129
 6897SOL     OW27359   6.150   4.018   1.344  0.1594  0.6066 -0.4918
 6897SOL    HW227360   6.222   3.958   1.363  0.4983  0.9371 -0.7258
 6897SOL    HW327361   6.071   3.965   1.354  0.4112  0.3570  0.2318
 6897SOL    MW427362   6.149   4.003   1.348  0.5233  0.5014  0.0698
 6898SOL     OW27363   1.697   0.722   5.353  0.0583  0.0463  1.1253
 6898SOL    HW227364   1.773   0.669   5.329  0.1862  0.5741  0.3131
 6898SOL    HW327365   1.724   0.768   5.432  0.7833  0.6212  0.5577
 6898SOL    MW427366   1.711   0.721   5.360  0.0060 -0.5263  0.1070
 6899SOL     OW27367   0.583   4.826   5.195  0.2683  0.1795  0.1778
 6899SOL    HW227368   0.602   4.768   5.269  2.0340  1.2828  0.6560
 6899SOL    HW327369   0.659   4.884   5.190 -1.1662  2.1118 -0.6102
 6899SOL    MW427370   0.596   4.826   5.204  0.0598 -0.3528  0.2108
 6900SOL     OW27371   3.254   0.088   2.197 -0.0007  0.3555 -0.3180
 6900SOL    HW227372   3.338   0.043   2.189  1.0475  1.8147  1.5851
 6900SOL    HW327373   3.261   0.161   2.135 -1.2334 -1.3204 -2.5449
 6900SOL    MW427374   3.266   0.092   2.188 -0.1182 -0.2725  0.9204
 6901SOL     OW27375   2.216   1.328   5.513 -0.2005 -0.8858  0.0941
 6901SOL    HW227376   2.287   1.387   5.538  0.3772 -0.3285 -2.5942
 6901SOL    HW327377   2.136   1.377   5.533  0.2032 -0.5969  1.0356
 6901SOL    MW427378   2.215   1.342   5.519 -1.2901  0.2157 -0.3164
 6902SOL     OW27379   3.604   3.477   1.369  0.2622  0.3984  0.0101
 6902SOL    HW227380   3.591   3.554   1.425 -1.6866  0.2428 -0.1358
 6902SOL    HW327381   3.620   3.513   1.282 -2.3125  0.7324 -0.4040
 6902SOL    MW427382   3.604   3.492   1.365 -0.6365  0.0993  0.0726
 6903SOL     OW27383   4.208   3.624   0.447 -0.3171 -0.2020 -0.8652
 6903SOL    HW227384   4.159   3.707   0.443 -2.2887 -0.8956  3.6586
 6903SOL    HW327385   4.300   3.651   0.453 -0.9208  1.7178  0.7647
 6903SOL    MW427386   4.214   3.639   0.447 -0.3610  0.1616  0.6553
 6904SOL     OW27387   1.703   1.529   1.032 -0.4327  0.0936  0.1246
 6904SOL    HW227388   1.764   1.460   1.004 -0.7090 -0.2145  0.2775
 6904SOL    HW327389   1.633   1.526   0.967 -1.2989 -0.9166  1.0721
 6904SOL    MW427390   1.702   1.519   1.019 -0.9323  0.0405  0.4518
 6905SOL     OW27391   4.646   2.894   1.902  0.0628  0.6168 -0.4771
 6905SOL    HW227392   4.663   2.896   1.807 -2.6848 -3.0007 -1.2707
 6905SOL    HW327393   4.559   2.934   1.911  1.0320  2.5820  0.8942
 6905SOL    MW427394   4.637   2.900   1.890 -0.5289 -0.1442  0.0212
 6906SOL     OW27395   4.225   3.862   5.434  0.0545  0.4630 -0.9957
 6906SOL    HW227396   4.158   3.871   5.503  0.2371 -0.1101 -0.7346
 6906SOL    HW327397   4.246   3.951   5.409  1.3836  0.8147  1.0695
 6906SOL    MW427398   4.219   3.875   5.440  0.1418  0.2109 -0.1046
 6907SOL     OW27399   1.175   2.991   3.716  0.1438  0.3461  0.4369
 6907SOL    HW227400   1.082   2.997   3.736 -0.0616 -0.3066 -0.2944
 6907SOL    HW327401   1.198   3.075   3.676  0.4445  1.4920  2.8292
 6907SOL    MW427402   1.166   3.003   3.714 -0.1692 -0.1435 -0.5126
 6908SOL     OW27403   0.338   0.186   3.638 -0.2134  0.3210 -0.7295
 6908SOL    HW227404   0.348   0.276   3.610 -1.3358  0.7980  0.3310
 6908SOL    HW327405   0.418   0.167   3.687 -0.3626  1.0328 -0.2034
 6908SOL    MW427406   0.350   0.195   3.641  0.4096  0.5856 -0.2358
 6909SOL     OW27407   3.046   4.899   3.539 -0.2828 -0.0233 -0.1964
 6909SOL    HW227408   3.100   4.840   3.487  1.8800  1.8480 -0.2258
 6909SOL    HW327409   3.011   4.962   3.476 -1.8392 -0.7132 -0.0501
 6909SOL    MW427410   3.049   4.900   3.524  0.1776  0.2212 -0.3277
 6910SOL     OW27411   5.451   3.759   0.964  0.1429 -0.2632 -0.2797
 6910SOL    HW227412   5.487   3.679   0.925 -3.3578 -1.6294 -1.1397
 6910SOL    HW327413   5.459   3.746   1.058  0.5311 -1.1572 -0.4284
 6910SOL    MW427414   5.457   3.747   0.971  0.1339  0.1063  0.1751
 6911SOL     OW27415   6.391   4.919   2.785  0.0195 -0.3088 -0.4612
 6911SOL    HW227416   6.396   4.947   2.694  0.3858 -0.5427 -0.5150
 6911SOL    HW327417   6.412   4.826   2.783  0.9798 -0.1202 -0.0338
 6911SOL    MW427418   6.395   4.910   2.773 -0.0442 -0.0495  0.0838
 6912SOL     OW27419   4.843   3.080   3.203 -0.2620 -0.5583  0.0144
 6912SOL    HW227420   4.823   3.055   3.113  1.6443  1.2309 -1.0029
 6912SOL    HW327421   4.903   3.013   3.234 -0.7056 -1.0296 -0.1251
 6912SOL    MW427422   4.848   3.068   3.195  1.0290  0.8506  0.3906
 6913SOL     OW27423   5.612   1.747   4.697 -0.2117  0.0383 -0.5315
 6913SOL    HW227424   5.526   1.721   4.730 -0.9529  2.1182 -0.6709
 6913SOL    HW327425   5.604   1.741   4.602 -0.7330  1.5736 -0.6224
 6913SOL    MW427426   5.599   1.743   4.689  0.1233  0.0475 -0.0227
 6914SOL     OW27427   0.948   0.046   0.293  0.1490  0.2880  0.1215
 6914SOL    HW227428   0.910  -0.001   0.218  0.2277  0.7154 -0.1878
 6914SOL    HW327429   0.883   0.112   0.316  0.0510  0.0540  0.5436
 6914SOL    MW427430   0.934   0.048   0.286  0.6479 -0.6250  1.0513
 6915SOL     OW27431   5.344   3.809   1.866  0.4528  0.2964 -0.0824
 6915SOL    HW227432   5.287   3.845   1.797  0.7568 -1.5797 -1.3728
 6915SOL    HW327433   5.412   3.761   1.818  1.4082 -0.0095  1.5205
 6915SOL    MW427434   5.345   3.808   1.850  0.1069 -0.3627  0.6574
 6916SOL     OW27435   5.752   2.327   5.350 -0.1165  0.0109  0.2187
 6916SOL    HW227436   5.691   2.400   5.359  1.8815  1.8506 -0.2447
 6916SOL    HW327437   5.807   2.351   5.276  0.4508 -2.1227 -0.1049
 6916SOL    MW427438   5.751   2.340   5.342  0.1998  0.1292  0.0875
 6917SOL     OW27439   4.301   1.254   0.607 -0.3363 -0.6010  0.0422
 6917SOL    HW227440   4.302   1.188   0.537  1.1364 -1.6559  0.9757
 6917SOL    HW327441   4.371   1.226   0.667 -2.3996 -0.5411  2.6812
 6917SOL    MW427442   4.311   1.241   0.606 -0.2288 -0.2137  0.3216
 6918SOL     OW27443   0.843   5.189   4.599 -0.6779  0.2287 -0.1645
 6918SOL    HW227444   0.888   5.247   4.661  1.7786 -0.5862 -1.0938
 6918SOL    HW327445   0.777   5.246   4.559  0.1230  1.7626  0.5698
 6918SOL    MW427446   0.840   5.204   4.602  0.4508 -0.7988 -0.2004
 6919SOL     OW27447   2.025   5.818   2.875 -0.3469  0.1078 -0.7036
 6919SOL    HW227448   1.980   5.882   2.931 -0.2623  0.4478 -1.0245
 6919SOL    HW327449   1.954   5.772   2.830 -0.4427 -0.5687  0.1151
 6919SOL    MW427450   2.010   5.820   2.877  0.1315 -0.3234  0.1307
 6920SOL     OW27451   6.252   4.221   1.878 -0.2314  0.4068  0.2824
 6920SOL    HW227452   6.191   4.285   1.915 -0.2855 -0.0455  0.9952
 6920SOL    HW327453   6.257   4.151   1.943  1.8023  0.8856  0.7157
 6920SOL    MW427454   6.245   4.220   1.891  0.1830  0.4169 -0.0806
 6921SOL     OW27455   1.302   2.497   1.092 -0.5120  0.5111  0.0785
 6921SOL    HW227456   1.361   2.423   1.085 -1.2539 -0.0983  0.2056
 6921SOL    HW327457   1.242   2.488   1.018 -0.6852  0.9084  0.1658
 6921SOL    MW427458   1.302   2.486   1.081  0.2221  0.3347  0.2540
 6922SOL     OW27459   3.167   0.690   2.680  0.1439 -0.3012 -0.3207
 6922SOL    HW227460   3.149   0.784   2.671 -0.5091 -0.2856  0.9582
 6922SOL    HW327461   3.259   0.686   2.707 -0.2110  0.0518  0.9735
 6922SOL    MW427462   3.177   0.702   2.682 -0.6554 -0.1565  0.0505
 6923SOL     OW27463   3.988   5.123   1.541 -0.8067  0.5501 -0.3218
 6923SOL    HW227464   4.014   5.214   1.553 -0.6489  0.7977 -2.2796
 6923SOL    HW327465   3.956   5.096   1.627  0.4989  1.9888  0.6668
 6923SOL    MW427466   3.987   5.131   1.554 -0.6828  0.5293  0.2416
 6924SOL     OW27467   5.658   0.152   6.415 -0.4261  0.4377 -0.2117
 6924SOL    HW227468   5.715   0.206   6.361 -0.2399  0.1178 -0.3436
 6924SOL    HW327469   5.715   0.121   6.486 -0.1703 -0.6492 -0.8594
 6924SOL    MW427470   5.673   0.155   6.417  0.2985  0.0542 -0.2523
 6925SOL     OW27471   3.800   2.663   0.125 -0.4193 -0.1910  0.2250
 6925SOL    HW227472   3.797   2.759   0.131  0.4002 -0.2224  2.0285
 6925SOL    HW327473   3.713   2.638   0.094 -0.5458  1.1450 -0.5939
 6925SOL    MW427474   3.788   2.672   0.122 -0.3065 -0.5451 -0.0281
 6926SOL     OW27475   5.026   2.346   5.121 -0.4373 -0.2336  0.6257
 6926SOL    HW227476   5.079   2.270   5.100 -3.3319 -2.6251  1.2093
 6926SOL    HW327477   5.042   2.362   5.214 -0.0578 -0.3217  0.5756
 6926SOL    MW427478   5.035   2.338   5.131 -0.5433  0.5774 -0.3371
 6927SOL     OW27479   0.458   3.648   1.947  0.2211 -0.1716 -0.3102
 6927SOL    HW227480   0.377   3.599   1.929 -0.7520  0.6450  1.5897
 6927SOL    HW327481   0.505   3.595   2.012 -1.0805  1.4982  2.1496
 6927SOL    MW427482   0.453   3.634   1.953  0.9081  0.2389 -0.0493
 6928SOL     OW27483   4.944   4.912   2.049 -0.0851  0.2646  0.1118
 6928SOL    HW227484   4.870   4.972   2.041 -0.1964 -0.0012 -1.0893
 6928SOL    HW327485   4.979   4.906   1.960  0.4766 -0.7625  0.3904
 6928SOL    MW427486   4.939   4.919   2.036  0.2789  1.0824 -0.4066
 6929SOL     OW27487   2.658   0.196   5.877  0.1363 -0.3415  0.0245
 6929SOL    HW227488   2.714   0.271   5.859 -0.8680 -0.1802 -3.0916
 6929SOL    HW327489   2.576   0.216   5.831 -1.8940 -1.3597  2.8985
 6929SOL    MW427490   2.654   0.209   5.868  0.1769 -0.0715 -0.6076
 6930SOL     OW27491   1.203   5.750   5.039 -0.1827 -0.8431 -1.0562
 6930SOL    HW227492   1.240   5.814   5.100 -1.3647  1.1256 -2.2807
 6930SOL    HW327493   1.121   5.722   5.081 -0.9021  0.3699 -1.5760
 6930SOL    MW427494   1.197   5.755   5.053  0.4593 -0.2211 -0.7834
 6931SOL     OW27495   4.115   3.528   6.156 -0.1620  0.1936  0.3884
 6931SOL    HW227496   4.062   3.509   6.233 -0.6016 -1.0933 -0.2002
 6931SOL    HW327497   4.202   3.494   6.178 -0.7297 -1.8875 -0.3231
 6931SOL    MW427498   4.120   3.521   6.169 -0.0347  0.6241 -0.1017
 6932SOL     OW27499   1.439   1.887   3.484 -0.0390 -0.6557 -0.4508
 6932SOL    HW227500   1.452   1.968   3.534 -1.0840 -0.4125 -0.5476
 6932SOL    HW327501   1.349   1.861   3.503 -0.3296 -0.7888 -1.8701
 6932SOL    MW427502   1.429   1.894   3.493  0.1894 -0.4063  0.4912
 6933SOL     OW27503   0.239   3.867   3.515  0.4172  0.0937 -0.4785
 6933SOL    HW227504   0.301   3.798   3.541  0.1433  0.4959  1.3817
 6933SOL    HW327505   0.203   3.899   3.598 -0.9746  1.0885 -1.4277
 6933SOL    MW427506   0.243   3.862   3.529 -0.0730 -0.2864 -0.3782
 6934SOL     OW27507   4.069   3.130   2.662 -0.4466  0.4319 -0.1823
 6934SOL    HW227508   4.098   3.218   2.638 -0.7413  0.3133 -1.0190
 6934SOL    HW327509   4.067   3.130   2.757  0.8885  0.8946 -0.1284
 6934SOL    MW427510   4.073   3.141   2.671  0.1549 -0.1488 -0.0728
 6935SOL     OW27511   4.090   6.126   2.182  0.0837  0.1333  0.1075
 6935SOL    HW227512   4.177   6.119   2.222  0.8557 -1.2245 -1.6794
 6935SOL    HW327513   4.105   6.170   2.099 -1.1553  1.0249  0.3287
 6935SOL    MW427514   4.103   6.131   2.177  0.0373  0.5429 -0.2101
 6936SOL     OW27515   0.331   5.249   1.575  0.1526  0.0015  0.9377
 6936SOL    HW227516   0.325   5.343   1.594  0.0377  0.3241 -0.5485
 6936SOL    HW327517   0.409   5.241   1.520 -0.4768 -0.5963  0.1132
 6936SOL    MW427518   0.341   5.261   1.570 -0.2580 -0.2561  0.0143
 6937SOL     OW27519   1.964   2.986   2.240  0.3071 -0.6013 -0.0438
 6937SOL    HW227520   2.028   3.057   2.234 -0.6660  0.4526  1.2943
 6937SOL    HW327521   1.978   2.949   2.327 -0.1813 -1.0641 -0.1571
 6937SOL    MW427522   1.974   2.991   2.251  0.9608 -0.3620  0.0375
 6938SOL     OW27523   2.497   2.402   3.763  0.5791  0.1953 -0.3574
 6938SOL    HW227524   2.585   2.365   3.760  0.8284  0.6085  1.2223
 6938SOL    HW327525   2.440   2.327   3.743  1.1350 -0.9020  1.8332
 6938SOL    MW427526   2.501   2.387   3.760 -0.4154 -0.1285 -0.1599
 6939SOL     OW27527   2.924   6.370   4.689 -0.2373  0.2194 -0.3854
 6939SOL    HW227528   2.905   6.346   4.598  0.7058 -1.5666 -0.1449
 6939SOL    HW327529   2.874   6.308   4.741  1.6226 -0.7972  0.2697
 6939SOL    MW427530   2.915   6.359   4.684 -0.1065  0.1809  0.1199
 6940SOL     OW27531   5.064   3.868   1.206 -0.3168 -0.5969  0.3350
 6940SOL    HW227532   5.115   3.947   1.220  0.3959 -1.1274  0.8261
 6940SOL    HW327533   5.058   3.860   1.111  1.0681 -0.8484  0.2400
 6940SOL    MW427534   5.070   3.877   1.195  0.5873 -0.0597 -0.7520
 6941SOL     OW27535   4.732   4.718   4.091  0.1047 -0.5498  0.3270
 6941SOL    HW227536   4.636   4.714   4.095  0.1069 -3.9683  0.5700
 6941SOL    HW327537   4.758   4.756   4.174 -1.0543 -0.9945  0.9254
 6941SOL    MW427538   4.723   4.722   4.102 -0.0505 -0.7486 -0.1720
 6942SOL     OW27539   2.778   3.238   5.379 -0.0055 -0.3361 -0.8208
 6942SOL    HW227540   2.787   3.209   5.288  1.9685  1.3230 -1.2309
 6942SOL    HW327541   2.866   3.231   5.415 -0.0680  2.0217 -0.0298
 6942SOL    MW427542   2.791   3.234   5.372 -0.1853 -0.4383 -0.3933
 6943SOL     OW27543   4.345   0.505   6.166 -0.5336  0.5863  0.2427
 6943SOL    HW227544   4.259   0.542   6.185 -0.8243 -0.0353  0.1842
 6943SOL    HW327545   4.395   0.518   6.247 -0.3198  1.9198 -0.0879
 6943SOL    MW427546   4.340   0.511   6.179 -0.5694  0.7452  0.1179
 6944SOL     OW27547   4.216   5.770   4.317 -0.2928  0.1546  0.0600
 6944SOL    HW227548   4.214   5.755   4.412 -0.1814  1.3333  0.2686
 6944SOL    HW327549   4.276   5.704   4.283 -1.1264 -0.9417  0.6693
 6944SOL    MW427550   4.224   5.759   4.325  0.5170 -0.1214  0.2301
 6945SOL     OW27551   2.713   2.922   4.229 -0.5541 -0.1194  0.7896
 6945SOL    HW227552   2.762   2.954   4.153 -0.8419  0.0434  0.6748
 6945SOL    HW327553   2.622   2.943   4.210 -0.8744 -1.7406  0.3095
 6945SOL    MW427554   2.708   2.929   4.217  0.3006  0.3464  0.0490
 6946SOL     OW27555   0.756   1.200   1.503 -0.0018 -0.1269  0.1744
 6946SOL    HW227556   0.774   1.207   1.409 -0.9380 -0.8445 -0.0736
 6946SOL    HW327557   0.814   1.130   1.533  1.2562  0.9871  0.4139
 6946SOL    MW427558   0.766   1.192   1.494 -0.0615 -0.8105 -0.2843
 6947SOL     OW27559   4.128   4.105   4.059 -0.5232  0.3358 -0.1862
 6947SOL    HW227560   4.198   4.101   4.124  0.4073 -1.2593 -1.2119
 6947SOL    HW327561   4.078   4.025   4.074 -0.3758  0.0197 -1.3192
 6947SOL    MW427562   4.131   4.094   4.070  0.0747 -0.0875  0.1898
 6948SOL     OW27563   2.200   4.028   0.467  0.8867  0.3053  0.2075
 6948SOL    HW227564   2.196   4.084   0.390 -1.8812 -1.3794 -1.0205
 6948SOL    HW327565   2.266   3.963   0.446  2.0704  1.4014  0.4416
 6948SOL    MW427566   2.208   4.027   0.454  0.3116 -0.2441 -0.1111
 6949SOL     OW27567   6.312   0.772   5.010  0.2841 -0.7475  0.1536
 6949SOL    HW227568   6.355   0.695   4.975 -0.6874 -0.3707 -2.0193
 6949SOL    HW327569   6.367   0.845   4.982  0.2376 -0.5204  0.6411
 6949SOL    MW427570   6.325   0.772   5.002  0.2178  0.2595 -0.0647
 6950SOL     OW27571   4.252   2.575   3.001 -0.3645 -0.4689 -0.3691
 6950SOL    HW227572   4.184   2.519   2.964 -2.2187  1.2618  0.1895
 6950SOL    HW327573   4.267   2.643   2.935  0.0943 -0.2789 -0.0788
 6950SOL    MW427574   4.245   2.577   2.988  0.2869 -0.5976  0.5197
 6951SOL     OW27575   2.490   1.416   1.136  0.2032  0.0511  0.8500
 6951SOL    HW227576   2.547   1.365   1.079  0.0616  0.1684  0.6057
 6951SOL    HW327577   2.535   1.499   1.148 -0.5779  0.6978 -0.4975
 6951SOL    MW427578   2.503   1.420   1.130  0.1879  0.0337 -0.5123
 6952SOL     OW27579   4.666   4.530   2.776 -0.0509  0.0951 -0.4474
 6952SOL    HW227580   4.621   4.609   2.745  1.4319  2.1560  2.2144
 6952SOL    HW327581   4.758   4.556   2.783  0.1767 -1.1863  2.3865
 6952SOL    MW427582   4.672   4.544   2.773 -0.8424 -0.8973 -0.6552
 6953SOL     OW27583   1.509   6.295   2.939  0.2379 -0.1075  0.0807
 6953SOL    HW227584   1.528   6.379   2.898  1.7610 -0.0768  0.7888
 6953SOL    HW327585   1.445   6.315   3.007 -0.8552  0.1481 -0.9941
 6953SOL    MW427586   1.503   6.309   2.942 -0.8284 -0.0315  0.1126
 6954SOL     OW27587   1.194   4.912   0.305  0.0448  0.8275  0.7705
 6954SOL    HW227588   1.179   4.920   0.211  1.2345 -1.5657  0.2944
 6954SOL    HW327589   1.122   4.857   0.337  0.6385  0.1151  0.9028
 6954SOL    MW427590   1.182   4.906   0.297 -1.0105  0.6542  0.4821
 6955SOL     OW27591   3.761   0.245   4.684 -0.8487 -0.6105 -0.1048
 6955SOL    HW227592   3.776   0.155   4.654 -0.8198 -0.2191 -1.3092
 6955SOL    HW327593   3.698   0.281   4.622  0.3949  0.7177 -0.6579
 6955SOL    MW427594   3.755   0.238   4.672  0.1296 -0.2378 -0.2370
 6956SOL     OW27595   5.075   5.838   4.483  0.3465  0.1748 -0.2995
 6956SOL    HW227596   5.171   5.834   4.484  0.3394  0.0737  0.0423
 6956SOL    HW327597   5.047   5.748   4.470  0.2742 -0.0836  1.5036
 6956SOL    MW427598   5.084   5.826   4.481 -0.7801 -0.5230  0.4442
 6957SOL     OW27599   2.053   0.984   4.603 -0.1966  0.8160 -0.2691
 6957SOL    HW227600   2.135   1.012   4.642 -1.3293  1.7805  1.5920
 6957SOL    HW327601   2.037   1.048   4.533  0.2469  1.0949 -0.1192
 6957SOL    MW427602   2.061   0.996   4.599 -0.1437  0.1647 -0.1818
 6958SOL     OW27603   2.445   5.149   2.361  0.4031 -0.1781  0.2986
 6958SOL    HW227604   2.444   5.161   2.266  0.3460  0.1559  0.3387
 6958SOL    HW327605   2.356   5.171   2.389  0.3249 -0.6155  0.3896
 6958SOL    MW427606   2.433   5.154   2.352  0.5977 -0.2937 -0.0608
 6959SOL     OW27607   2.544   0.538   4.936  0.2765 -0.4365 -0.4673
 6959SOL    HW227608   2.616   0.582   4.890  0.0389 -0.2631 -0.6775
 6959SOL    HW327609   2.541   0.581   5.022  1.6474 -1.7218  0.2734
 6959SOL    MW427610   2.553   0.550   4.941  0.0053 -0.0663  0.6520
 6960SOL     OW27611   1.801   2.351   2.270  0.1783  0.3174  0.2069
 6960SOL    HW227612   1.792   2.446   2.282  1.2322  0.4412  0.0759
 6960SOL    HW327613   1.769   2.313   2.352 -3.0656  0.6011 -0.7786
 6960SOL    MW427614   1.796   2.358   2.282 -0.2207 -0.0148 -0.1990
 6961SOL     OW27615   2.418   2.865   2.414 -0.2532  0.0240 -0.1157
 6961SOL    HW227616   2.416   2.769   2.408 -0.2802 -0.1625  2.0411
 6961SOL    HW327617   2.349   2.886   2.477 -0.7341  1.5425 -1.1075
 6961SOL    MW427618   2.408   2.855   2.421 -0.3258 -0.3365  0.0310
 6962SOL     OW27619   4.168   3.312   3.886 -0.0958 -0.0171  0.1494
 6962SOL    HW227620   4.092   3.294   3.831  0.2272  1.0860 -0.6878
 6962SOL    HW327621   4.134   3.367   3.957 -0.0410  0.6704 -0.3538
 6962SOL    MW427622   4.153   3.317   3.888 -0.3547 -0.0110  0.4000
 6963SOL     OW27623   2.236   2.733   2.905 -0.1096 -0.1145 -0.2996
 6963SOL    HW227624   2.179   2.663   2.873 -1.6579  0.6630  0.6522
 6963SOL    HW327625   2.260   2.782   2.826 -1.7557  0.2363 -0.6311
 6963SOL    MW427626   2.231   2.730   2.890  0.0452 -0.1173 -0.7448
 6964SOL     OW27627   3.742   6.295   2.510  0.5177 -0.4079 -0.4169
 6964SOL    HW227628   3.809   6.360   2.532  2.8035 -1.9488 -2.2558
 6964SOL    HW327629   3.783   6.242   2.442 -2.6841 -1.3868 -1.7628
 6964SOL    MW427630   3.756   6.297   2.504  0.6460  0.2399  0.0476
 6965SOL     OW27631   0.726   1.288   0.101 -0.1869  1.3927 -0.0576
 6965SOL    HW227632   0.797   1.272   0.039 -0.5186  2.2746 -0.6936
 6965SOL    HW327633   0.770   1.293   0.187 -0.0793 -3.2281  0.4161
 6965SOL    MW427634   0.741   1.287   0.104  0.7520 -0.0442 -0.2107
 6966SOL     OW27635   3.719   5.635   5.763  0.2476 -0.2285  0.3160
 6966SOL    HW227636   3.733   5.549   5.803  0.0570 -0.5483 -0.2972
 6966SOL    HW327637   3.725   5.696   5.836 -0.3056 -0.8209  0.8685
 6966SOL    MW427638   3.722   5.632   5.778 -0.3464 -0.0757 -0.2888
 6967SOL     OW27639   4.236   1.489   5.916 -0.3553  0.0065  0.0814
 6967SOL    HW227640   4.219   1.436   5.994  0.7525 -1.1371 -0.4130
 6967SOL    HW327641   4.265   1.426   5.850 -1.6856  0.8855 -1.4159
 6967SOL    MW427642   4.237   1.474   5.917  0.1093  0.3167 -0.1573
 6968SOL     OW27643   1.280   3.379   0.962  0.1473 -0.1371 -0.6510
 6968SOL    HW227644   1.275   3.286   0.984 -0.7475  0.2381  0.8844
 6968SOL    HW327645   1.286   3.423   1.047  0.8691  1.2036 -1.3671
 6968SOL    MW427646   1.280   3.372   0.976  0.3484  0.3250  0.5360
 6969SOL     OW27647   5.081   4.922   4.823 -0.3412  0.0124 -0.0453
 6969SOL    HW227648   4.999   4.936   4.776  0.1782  2.8364 -0.2811
 6969SOL    HW327649   5.073   4.976   4.902  0.5746 -1.1918  0.9221
 6969SOL    MW427650   5.069   4.931   4.827  0.0039  0.0137 -0.3497
 6970SOL     OW27651   1.486   2.109   3.634  0.3927  0.0954 -0.2782
 6970SOL    HW227652   1.443   2.098   3.720 -0.4743 -2.3768 -0.9479
 6970SOL    HW327653   1.576   2.079   3.648 -0.1266 -1.6699 -0.5024
 6970SOL    MW427654   1.492   2.104   3.648 -0.1204 -0.0567 -0.3940
 6971SOL     OW27655   2.379   5.913   1.136  0.1653 -0.3884  0.5786
 6971SOL    HW227656   2.345   5.999   1.108  0.0620 -0.2072  1.2417
 6971SOL    HW327657   2.314   5.850   1.103 -0.1570 -0.1482  0.7458
 6971SOL    MW427658   2.366   5.916   1.128  0.3590  0.1175 -0.2420
 6972SOL     OW27659   4.492   5.072   4.161 -0.0028 -0.1216 -0.4198
 6972SOL    HW227660   4.410   5.101   4.120 -0.2964  0.3840  0.4970
 6972SOL    HW327661   4.554   5.064   4.088 -1.0237 -1.0870 -1.2053
 6972SOL    MW427662   4.489   5.075   4.146 -0.1921  0.6416  0.1645
 6973SOL     OW27663   3.072   4.427   5.085 -0.2382  0.1518 -0.4928
 6973SOL    HW227664   3.116   4.356   5.131  2.5138  1.5803 -0.6805
 6973SOL    HW327665   3.142   4.472   5.038 -2.3016  1.2621 -2.7520
 6973SOL    MW427666   3.087   4.424   5.085 -0.2000 -0.8089  0.5717
 6974SOL     OW27667   1.453   5.075   5.015  0.1587 -0.6457 -0.2201
 6974SOL    HW227668   1.361   5.071   5.039  0.3765 -0.1117  0.7438
 6974SOL    HW327669   1.473   4.988   4.980 -0.2303 -1.3949  1.3356
 6974SOL    MW427670   1.443   5.063   5.013  0.4906  0.2754  0.1099
 6975SOL     OW27671   2.690   6.045   2.074  0.4034 -0.0233  0.4037
 6975SOL    HW227672   2.781   6.016   2.071  0.4803  0.2974 -1.7382
 6975SOL    HW327673   2.641   5.975   2.032 -0.0666  0.6535 -0.2121
 6975SOL    MW427674   2.695   6.032   2.068 -0.1308 -0.6628  1.0950
 6976SOL     OW27675   5.474   5.148   2.976 -0.4777  0.0597 -0.0766
 6976SOL    HW227676   5.397   5.173   2.925 -0.1122  1.6498  0.1218
 6976SOL    HW327677   5.438   5.098   3.049 -1.1794 -0.4886 -0.7728
 6976SOL    MW427678   5.459   5.145   2.979  0.1744 -0.7383 -0.4598
 6977SOL     OW27679   2.776   2.537   1.109  0.6700  0.3875 -0.0304
 6977SOL    HW227680   2.813   2.451   1.089  0.7605  0.1903  0.9105
 6977SOL    HW327681   2.770   2.538   1.205  2.3948  2.1297  0.1181
 6977SOL    MW427682   2.780   2.526   1.119 -0.0992  0.5353 -0.3609
 6978SOL     OW27683   1.443   5.354   3.870 -0.3125 -0.0051 -0.2061
 6978SOL    HW227684   1.352   5.330   3.887 -0.1062 -1.5496 -1.0448
 6978SOL    HW327685   1.482   5.364   3.957 -0.8184 -1.3228  0.1959
 6978SOL    MW427686   1.436   5.352   3.884 -0.2491  0.5140 -0.3387
 6979SOL     OW27687   1.426   0.375   2.092 -0.0650  0.2729 -0.4331
 6979SOL    HW227688   1.460   0.461   2.066  1.6250  0.4371  2.0424
 6979SOL    HW327689   1.501   0.328   2.126 -1.3247 -1.5001  0.0608
 6979SOL    MW427690   1.440   0.380   2.093 -0.2179 -0.0001  0.6946
 6980SOL     OW27691   6.119   4.128   4.781  0.4922 -0.0744  0.4853
 6980SOL    HW227692   6.066   4.204   4.758 -0.2037 -0.9598 -0.9557
 6980SOL    HW327693   6.057   4.066   4.819  0.4885 -1.0457 -1.0463
 6980SOL    MW427694   6.104   4.130   4.783  0.1792  0.1967  0.3320
 6981SOL     OW27695   5.532   4.357   5.227  0.6951  0.4272  0.4470
 6981SOL    HW227696   5.535   4.322   5.138 -3.0296  0.3688  0.2050
 6981SOL    HW327697   5.503   4.283   5.281  0.3503  1.1267  1.2525
 6981SOL    MW427698   5.529   4.343   5.222  0.2793  0.4566  0.6341
 6982SOL     OW27699   4.089   2.961   2.970  0.1627  0.2281 -0.9742
 6982SOL    HW227700   4.013   3.016   2.949 -0.6187 -0.7442 -0.7501
 6982SOL    HW327701   4.150   3.019   3.015 -0.5839  0.9395 -0.8763
 6982SOL    MW427702   4.087   2.976   2.973 -0.0838 -0.1313  0.1207
 6983SOL     OW27703   5.283   4.808   2.716  0.0794  0.1058 -0.3675
 6983SOL    HW227704   5.210   4.771   2.766 -0.0498  1.1096  0.2029
 6983SOL    HW327705   5.357   4.804   2.776 -0.0886  1.3649 -0.0506
 6983SOL    MW427706   5.283   4.802   2.731 -0.0295 -0.0561  0.1403
 6984SOL     OW27707   6.392   0.675   6.303  0.1919 -0.2987 -0.3930
 6984SOL    HW227708   6.462   0.680   6.238 -0.0606 -1.9777 -0.8603
 6984SOL    HW327709   6.325   0.735   6.270  1.2107  1.0383 -0.1367
 6984SOL    MW427710   6.392   0.683   6.290  0.2284  0.4109  0.0227
 6985SOL     OW27711   1.499   2.688   5.398  0.1884  0.0810 -0.5979
 6985SOL    HW227712   1.513   2.600   5.363 -3.2919 -0.3532 -1.2891
 6985SOL    HW327713   1.499   2.745   5.321 -1.1780  0.0839 -0.6198
 6985SOL    MW427714   1.500   2.684   5.384  0.0801 -0.0433  0.4513
 6986SOL     OW27715   5.952   3.481   1.508  0.2786 -0.1953  0.6341
 6986SOL    HW227716   6.017   3.434   1.560 -0.3744  0.0052  1.6618
 6986SOL    HW327717   5.924   3.418   1.443 -0.0098 -0.9925  1.5031
 6986SOL    MW427718   5.957   3.467   1.507  0.5122  0.4613 -0.1588
 6987SOL     OW27719   2.177   0.353   2.485  0.3539 -0.0706  0.2123
 6987SOL    HW227720   2.104   0.338   2.545 -0.1869 -0.5570 -0.5449
 6987SOL    HW327721   2.206   0.265   2.461 -1.5402 -0.0479 -2.7267
 6987SOL    MW427722   2.171   0.339   2.490 -0.3204  0.3742 -0.2365
 6988SOL     OW27723   3.775   3.557   4.830 -0.8070  0.5637 -0.2158
 6988SOL    HW227724   3.777   3.637   4.778  1.0574  0.4986 -0.3120
 6988SOL    HW327725   3.692   3.515   4.806 -1.1111  1.7190 -1.2850
 6988SOL    MW427726   3.764   3.562   4.820 -0.5178 -1.0814 -0.3306
 6989SOL     OW27727   0.136   0.755   5.585 -0.3256  0.1139  0.5216
 6989SOL    HW227728   0.095   0.841   5.595 -3.0234 -0.9585 -0.4027
 6989SOL    HW327729   0.110   0.727   5.498  3.3447 -0.2974 -0.5732
 6989SOL    MW427730   0.127   0.763   5.575  0.0461  0.4343 -0.2442
 6990SOL     OW27731   4.974   4.470   0.837  0.1372  0.3440  0.3261
 6990SOL    HW227732   4.929   4.538   0.787  0.6766  0.1773 -0.4051
 6990SOL    HW327733   4.910   4.442   0.903 -0.2096  1.3112  0.4169
 6990SOL    MW427734   4.959   4.475   0.839  0.7319  0.0404 -0.3789
 6991SOL     OW27735   4.048   0.835   1.312 -0.2490  0.0831  0.1787
 6991SOL    HW227736   4.080   0.838   1.402 -1.0903  0.4323  0.4835
 6991SOL    HW327737   4.028   0.926   1.290  0.8094  0.1217 -0.6972
 6991SOL    MW427738   4.049   0.847   1.321  0.4272 -0.1854  0.0998
 6992SOL     OW27739   5.965   1.434   4.014  0.2429  0.1320 -0.0450
 6992SOL    HW227740   5.996   1.510   3.964  1.6978  0.0208  0.6327
 6992SOL    HW327741   5.893   1.469   4.067 -0.6548  0.4769 -1.4384
 6992SOL    MW427742   5.959   1.449   4.014 -0.0595  0.1741  0.1460
 6993SOL     OW27743   1.903   0.534   0.146 -0.2479 -0.5483  0.0915
 6993SOL    HW227744   1.848   0.608   0.172  2.9419  1.4095  1.8865
 6993SOL    HW327745   1.889   0.469   0.214 -0.8080 -0.3513  0.1728
 6993SOL    MW427746   1.894   0.535   0.158  0.0338 -0.2136  0.3848
 6994SOL     OW27747   6.186   3.642   4.705 -0.0282 -0.2563 -0.4583
 6994SOL    HW227748   6.224   3.617   4.621  1.6611  1.4441 -0.2722
 6994SOL    HW327749   6.163   3.734   4.695  0.0738 -0.0587  0.8949
 6994SOL    MW427750   6.188   3.651   4.693  0.1836  0.0411 -0.1334
 6995SOL     OW27751   2.465   3.790   0.833  0.3435  0.2716  0.7494
 6995SOL    HW227752   2.497   3.801   0.923  0.1679 -1.0779  1.0028
 6995SOL    HW327753   2.534   3.741   0.788  0.9411  1.9119 -0.2051
 6995SOL    MW427754   2.478   3.785   0.839  0.3628  0.0773 -0.1481
 6996SOL     OW27755   2.106   1.567   4.363 -0.0172 -0.3188  0.2669
 6996SOL    HW227756   2.074   1.528   4.445  0.5100 -0.3495  0.4685
 6996SOL    HW327757   2.183   1.514   4.341 -0.4718 -0.6587 -0.5510
 6996SOL    MW427758   2.112   1.555   4.371  0.5348 -0.4916 -0.2898
 6997SOL     OW27759   6.285   3.746   5.584 -0.1484 -0.0329  0.2897
 6997SOL    HW227760   6.294   3.797   5.665  1.7044  0.8785 -0.4491
 6997SOL    HW327761   6.266   3.811   5.517 -0.6034 -0.6678 -0.2109
 6997SOL    MW427762   6.284   3.761   5.586  0.2525 -0.3061 -0.7281
 6998SOL     OW27763   0.808   5.171   2.497  0.1453  0.0391  0.2977
 6998SOL    HW227764   0.877   5.188   2.562  0.1619 -1.6079  0.7626
 6998SOL    HW327765   0.856   5.158   2.415  0.4535 -1.2560  0.6492
 6998SOL    MW427766   0.824   5.172   2.495 -1.1142  0.6386  0.5451
 6999SOL     OW27767   3.669   4.957   2.177 -0.2606  0.1809 -0.1497
 6999SOL    HW227768   3.763   4.938   2.168  0.3355  2.9429 -0.6827
 6999SOL    HW327769   3.628   4.906   2.107  0.5012 -2.5996  1.2717
 6999SOL    MW427770   3.676   4.948   2.167 -0.1961  0.2157 -0.7029
 7000SOL     OW27771   5.742   3.167   0.403  0.3054 -0.2571  0.1149
 7000SOL    HW227772   5.763   3.081   0.440  1.0994  0.9414  2.6105
 7000SOL    HW327773   5.780   3.165   0.315  2.4567 -1.6033  1.0133
 7000SOL    MW427774   5.750   3.155   0.396 -0.3752 -0.2567 -0.2669
 7001SOL     OW27775   1.124   2.889   4.845  0.3401  0.2935  0.0378
 7001SOL    HW227776   1.184   2.910   4.916 -0.1753 -1.4338  1.0317
 7001SOL    HW327777   1.085   2.805   4.870 -0.8011  0.2636 -1.6745
 7001SOL    MW427778   1.126   2.881   4.858  0.2814 -0.3166  0.6129
 7002SOL     OW27779   5.026   6.309   0.522 -0.2123 -0.3206  0.3335
 7002SOL    HW227780   5.049   6.319   0.430 -0.3944  1.2374  0.4395
 7002SOL    HW327781   5.062   6.223   0.546  1.4030  0.0279 -0.7093
 7002SOL    MW427782   5.034   6.299   0.513  0.0843  0.4979 -0.2834
 7003SOL     OW27783   0.210   0.018   1.152  0.1055  0.3354  0.1992
 7003SOL    HW227784   0.250   0.045   1.070  0.9658  0.9513  0.8017
 7003SOL    HW327785   0.185   0.101   1.195 -1.7013 -0.0153 -0.0885
 7003SOL    MW427786   0.212   0.033   1.147  0.3473 -0.3459 -0.0393
 7004SOL     OW27787   3.624   1.064   4.468 -0.1483  0.5838  0.1600
 7004SOL    HW227788   3.565   1.016   4.410  0.8055  0.5053 -0.7776
 7004SOL    HW327789   3.650   1.000   4.534 -0.1212  0.2668 -0.1563
 7004SOL    MW427790   3.619   1.049   4.469  0.2504  0.4573  0.7541
 7005SOL     OW27791   2.985   5.755   2.682 -0.2901  0.1523  0.3117
 7005SOL    HW227792   2.999   5.694   2.610 -0.2943 -0.3142  0.6971
 7005SOL    HW327793   2.892   5.776   2.679 -0.1196  0.8558 -0.3754
 7005SOL    MW427794   2.975   5.750   2.672  0.2637 -0.2012  0.1037
 7006SOL     OW27795   0.782   3.020   0.299 -0.0263  0.0672  0.1716
 7006SOL    HW227796   0.774   3.007   0.205  1.7909 -1.4627  0.1844
 7006SOL    HW327797   0.712   2.966   0.337 -0.3428  0.1742 -0.2475
 7006SOL    MW427798   0.771   3.011   0.292 -0.1357 -0.9527 -0.2110
 7007SOL     OW27799   2.834   6.133   2.818  0.2695 -0.1028  0.1159
 7007SOL    HW227800   2.769   6.169   2.758 -0.3020 -1.4069 -0.0732
 7007SOL    HW327801   2.793   6.055   2.855  1.7056 -0.9443  0.0156
 7007SOL    MW427802   2.820   6.127   2.815  0.0419  0.0075 -0.1037
 7008SOL     OW27803   2.089   3.625   1.709  0.1499  0.6927 -0.4772
 7008SOL    HW227804   2.045   3.638   1.793  3.6807  1.8331  1.4227
 7008SOL    HW327805   2.103   3.531   1.703 -1.8419  0.3774 -0.8456
 7008SOL    MW427806   2.085   3.615   1.719 -0.1471 -0.1958  0.3067
 7009SOL     OW27807   1.950   3.369   1.125  0.2211  0.4488 -0.0133
 7009SOL    HW227808   1.975   3.400   1.212  0.4016 -0.1852  0.1676
 7009SOL    HW327809   1.916   3.447   1.080  0.7376  0.9225  0.3949
 7009SOL    MW427810   1.949   3.384   1.130 -0.0891 -0.2199 -0.7350
 7010SOL     OW27811   0.059   0.876   3.670  0.2003 -0.1410 -0.0334
 7010SOL    HW227812  -0.004   0.929   3.719  0.2226  0.6085 -0.7953
 7010SOL    HW327813   0.014   0.852   3.590  0.0839 -1.5664  0.4433
 7010SOL    MW427814   0.045   0.880   3.666  0.1963 -0.3564 -0.0791
 7011SOL     OW27815   6.256   4.389   4.578  0.1204  0.0343  0.1348
 7011SOL    HW227816   6.319   4.446   4.534 -2.2467  0.5784 -2.8725
 7011SOL    HW327817   6.206   4.349   4.507 -2.0029 -1.4744  2.3301
 7011SOL    MW427818   6.258   4.391   4.563  0.4738 -0.0777  1.0515
 7012SOL     OW27819   3.946   3.518   3.190  0.2084  0.2247  0.5295
 7012SOL    HW227820   3.915   3.503   3.279 -0.2467 -0.7795  0.2238
 7012SOL    HW327821   4.011   3.587   3.198 -1.6420  1.9659  1.3084
 7012SOL    MW427822   3.950   3.525   3.203 -0.0553  0.6811 -1.0895
 7013SOL     OW27823   4.341   1.195   3.468  0.3859  0.4221  0.0527
 7013SOL    HW227824   4.407   1.213   3.401  0.2991 -3.4766 -1.3299
 7013SOL    HW327825   4.387   1.142   3.534 -0.5943  0.4646  0.8031
 7013SOL    MW427826   4.356   1.190   3.468 -0.2264  0.1782  0.1398
 7014SOL     OW27827   2.257   3.867   1.302 -0.7657 -0.4198 -0.4273
 7014SOL    HW227828   2.216   3.914   1.374 -3.7398 -1.9409 -0.9628
 7014SOL    HW327829   2.244   3.924   1.226  1.3432  0.6591 -0.0466
 7014SOL    MW427830   2.249   3.881   1.301  0.1023  0.5652  0.7968
 7015SOL     OW27831   0.178   4.379   0.389  0.1302 -0.5391  0.4344
 7015SOL    HW227832   0.162   4.474   0.385 -2.0153 -0.8204  0.9746
 7015SOL    HW327833   0.111   4.341   0.332  0.1288 -1.7928  1.2329
 7015SOL    MW427834   0.167   4.387   0.381 -0.7617  0.2277  0.5269
 7016SOL     OW27835   1.555   4.756   0.435 -0.0842 -0.3925 -0.5637
 7016SOL    HW227836   1.512   4.840   0.450  0.0452 -0.4463  0.1356
 7016SOL    HW327837   1.494   4.708   0.379 -0.4276 -0.0510 -0.4887
 7016SOL    MW427838   1.541   4.760   0.430 -0.1558 -0.2168 -0.5211
 7017SOL     OW27839   4.925   4.881   5.995  0.2686  0.0853 -0.0124
 7017SOL    HW227840   4.899   4.895   6.086  0.2653  1.2751 -0.1738
 7017SOL    HW327841   4.911   4.966   5.953 -1.0887 -0.8053 -1.4656
 7017SOL    MW427842   4.920   4.894   6.001 -0.0159 -0.2161 -0.3534
 7018SOL     OW27843   5.275   4.445   2.568  0.1794 -0.3670  0.0781
 7018SOL    HW227844   5.252   4.439   2.661  0.1642 -0.0372  0.0966
 7018SOL    HW327845   5.286   4.354   2.540  0.0886 -0.4713  0.3791
 7018SOL    MW427846   5.274   4.432   2.577 -0.4070  0.3825 -0.1347
 7019SOL     OW27847   1.142   4.600   1.954 -0.1606  0.1803 -0.2827
 7019SOL    HW227848   1.133   4.515   1.997  1.3919  0.4174  0.5660
 7019SOL    HW327849   1.055   4.640   1.962 -0.1244 -0.0708  2.0673
 7019SOL    MW427850   1.129   4.594   1.961  0.4931 -0.4116  0.0523
 7020SOL     OW27851   2.479   2.060   3.895 -0.1604  0.7151 -0.1609
 7020SOL    HW227852   2.420   2.032   3.965 -1.4780  2.2096 -0.6156
 7020SOL    HW327853   2.541   2.120   3.938 -1.2463  1.9905 -0.2904
 7020SOL    MW427854   2.479   2.065   3.910 -0.3543 -0.3532  0.1367
 7021SOL     OW27855   4.324   5.346   6.055 -0.0617 -0.1624 -0.0814
 7021SOL    HW227856   4.258   5.367   5.990  0.8047 -0.1362 -0.9702
 7021SOL    HW327857   4.388   5.417   6.050  0.0717 -0.2080  0.7318
 7021SOL    MW427858   4.324   5.358   6.046 -0.2326 -0.7284  0.2188
 7022SOL     OW27859   1.267   2.235   3.478  0.6416 -0.2237  0.4753
 7022SOL    HW227860   1.354   2.216   3.513 -0.0304 -1.6338  1.4891
 7022SOL    HW327861   1.207   2.200   3.543 -0.6843 -0.6927 -0.9307
 7022SOL    MW427862   1.271   2.227   3.491  0.7959 -0.2107 -0.1796
 7023SOL     OW27863   0.064   2.532   5.555 -0.2980 -0.0024 -0.2961
 7023SOL    HW227864   0.060   2.498   5.644  0.1934 -0.3752 -0.4151
 7023SOL    HW327865   0.038   2.623   5.563  0.2553  0.1076  0.3104
 7023SOL    MW427866   0.060   2.539   5.568  0.2902  0.4283  0.4631
 7024SOL     OW27867   5.010   2.449   0.139 -0.4838 -0.0080  0.2669
 7024SOL    HW227868   5.058   2.373   0.105 -0.2135  0.5633 -0.6844
 7024SOL    HW327869   5.019   2.515   0.071 -2.2196  0.2985  0.2813
 7024SOL    MW427870   5.018   2.447   0.126 -0.4076 -0.0171  0.0881
 7025SOL     OW27871   3.144   3.026   1.266  0.1242  0.2394  0.0622
 7025SOL    HW227872   3.116   2.940   1.236  0.9619 -0.0559  0.0971
 7025SOL    HW327873   3.182   3.067   1.188  1.4407 -0.1633  0.4686
 7025SOL    MW427874   3.145   3.020   1.252 -0.1280  0.4469 -0.2948
 7026SOL     OW27875   2.336   3.931   2.660  0.8664 -0.3173  0.1344
 7026SOL    HW227876   2.405   3.954   2.722  0.7589 -0.6683  0.3875
 7026SOL    HW327877   2.255   3.940   2.710  0.4534  2.7718 -0.8793
 7026SOL    MW427878   2.334   3.935   2.675 -0.1950  0.0244  0.1561
 7027SOL     OW27879   3.018   0.318   6.328  0.1274 -0.0839  0.1290
 7027SOL    HW227880   2.933   0.348   6.361  0.0161 -0.1784 -0.0682
 7027SOL    HW327881   2.996   0.245   6.270  0.4277 -0.8782  0.9904
 7027SOL    MW427882   3.004   0.313   6.325  0.0515  0.1888 -0.4969
 7028SOL     OW27883   0.656   1.035   2.074  0.0190  0.7248 -0.0310
 7028SOL    HW227884   0.571   1.020   2.032 -0.6793  0.3032  1.4630
 7028SOL    HW327885   0.713   0.967   2.039 -0.6432  0.1693 -0.0487
 7028SOL    MW427886   0.652   1.024   2.064 -0.1057  0.1489 -0.3227
 7029SOL     OW27887   2.579   0.081   2.291  0.1943  0.4812 -0.0529
 7029SOL    HW227888   2.636   0.042   2.224  1.1670  0.2646  0.8693
 7029SOL    HW327889   2.569   0.172   2.263  0.0625  0.2378 -0.8275
 7029SOL    MW427890   2.585   0.088   2.278 -0.2034  0.0227  0.2467
 7030SOL     OW27891   4.643   5.248   4.322  0.3302 -0.2425  0.2494
 7030SOL    HW227892   4.689   5.308   4.262 -1.8682  0.9777 -0.3057
 7030SOL    HW327893   4.587   5.196   4.265 -1.3294  0.5040  1.1351
 7030SOL    MW427894   4.642   5.249   4.306 -0.2324  0.0889 -0.0361
 7031SOL     OW27895   2.564   3.381   4.710 -0.0267 -0.6377 -0.4265
 7031SOL    HW227896   2.570   3.468   4.669 -1.3901  0.5874  1.7866
 7031SOL    HW327897   2.473   3.355   4.696  0.2506 -1.5426 -0.6495
 7031SOL    MW427898   2.553   3.389   4.702  0.0750 -0.3192 -0.1105
 7032SOL     OW27899   6.257   5.582   4.420  1.0080  0.1291  0.6736
 7032SOL    HW227900   6.208   5.587   4.338  1.3393  1.4813  0.5423
 7032SOL    HW327901   6.342   5.546   4.395  1.5031  1.5407  0.2041
 7032SOL    MW427902   6.261   5.578   4.406  0.2720  0.4171  0.3420
 7033SOL     OW27903   4.796   1.006   3.469  0.1706  0.0316  0.1318
 7033SOL    HW227904   4.794   0.911   3.454 -0.7729  0.0274  0.2647
 7033SOL    HW327905   4.889   1.026   3.477  0.3742 -0.9133  0.2812
 7033SOL    MW427906   4.808   0.996   3.468 -0.0243 -0.1923  0.1592
 7034SOL     OW27907   6.258   0.757   0.309  0.0397  0.1836  0.0005
 7034SOL    HW227908   6.340   0.723   0.344  0.1589 -0.2951 -0.7338
 7034SOL    HW327909   6.284   0.819   0.241 -0.2065  0.0629 -0.2058
 7034SOL    MW427910   6.272   0.761   0.305 -0.1043 -0.0159 -0.2069
 7035SOL     OW27911   5.080   0.164   2.906 -0.4069 -0.3619  0.4564
 7035SOL    HW227912   5.148   0.103   2.876 -0.0876  0.5613 -0.8017
 7035SOL    HW327913   5.116   0.251   2.887 -1.6550  0.1570  0.3896
 7035SOL    MW427914   5.094   0.168   2.899 -0.1126 -0.6984 -0.3309
 7036SOL     OW27915   1.169   6.186   0.651 -0.3085  0.1284 -0.0543
 7036SOL    HW227916   1.077   6.180   0.677 -0.6415  0.6228 -1.0712
 7036SOL    HW327917   1.168   6.168   0.557  0.3308  2.3693 -0.5446
 7036SOL    MW427918   1.157   6.183   0.642  0.3644 -0.1004  0.1059
 7037SOL     OW27919   2.565   1.052   2.993  0.0746 -0.0208  0.2938
 7037SOL    HW227920   2.582   1.051   3.087 -2.3744 -0.0903  0.8244
 7037SOL    HW327921   2.485   1.000   2.983 -0.3240  0.8835 -1.6757
 7037SOL    MW427922   2.556   1.045   3.004  0.7149 -0.0833  0.1753
 7038SOL     OW27923   5.038   5.843   5.188 -0.0969 -0.0698  0.2534
 7038SOL    HW227924   5.024   5.755   5.225  0.3273  0.0109  0.6185
 7038SOL    HW327925   5.128   5.865   5.214 -0.3518  0.6511  0.5377
 7038SOL    MW427926   5.048   5.834   5.197  0.3642 -0.2749  0.2831
 7039SOL     OW27927   4.305   0.085   4.315  0.1228  0.5416 -0.6020
 7039SOL    HW227928   4.367   0.143   4.358  0.3267  0.3397 -0.6220
 7039SOL    HW327929   4.350   0.001   4.310 -0.5620  0.0956  0.3702
 7039SOL    MW427930   4.319   0.081   4.320  0.1906  0.2556  0.2952
 7040SOL     OW27931   6.103   1.116   5.176  0.0867  0.1047 -0.2243
 7040SOL    HW227932   6.135   1.119   5.085 -1.6090  1.1276 -0.8263
 7040SOL    HW327933   6.025   1.171   5.176  1.9735  3.1745  2.6738
 7040SOL    MW427934   6.097   1.124   5.164  0.0833  0.4918  0.6362
 7041SOL     OW27935   2.016   4.848   5.030  0.1940 -0.3386  0.4436
 7041SOL    HW227936   1.983   4.908   5.098 -0.6513  0.0563 -0.2892
 7041SOL    HW327937   1.938   4.800   5.002  0.6179 -0.8092  0.0595
 7041SOL    MW427938   2.001   4.849   5.035 -0.3888  0.6447 -0.5926
 7042SOL     OW27939   1.805   0.168   1.466  0.3697 -0.1947  0.6120
 7042SOL    HW227940   1.815   0.142   1.375  1.4234  1.0518  0.3478
 7042SOL    HW327941   1.882   0.131   1.510  0.5953  0.4055  0.7193
 7042SOL    MW427942   1.817   0.159   1.460  0.3049 -0.0086  0.2155
 7043SOL     OW27943   3.224   6.357   1.054  0.0852 -0.7676 -0.3594
 7043SOL    HW227944   3.314   6.372   1.081 -0.3771 -0.3317  1.0162
 7043SOL    HW327945   3.204   6.431   0.996 -0.3799  0.9882  1.9039
 7043SOL    MW427946   3.233   6.369   1.050 -0.2331 -0.1161 -0.0310
 7044SOL     OW27947   0.215   5.067   2.706  0.0690 -0.4964  0.1106
 7044SOL    HW227948   0.197   5.141   2.647  0.4660 -1.2428 -0.9632
 7044SOL    HW327949   0.280   5.102   2.768  1.5813 -0.4076 -1.4349
 7044SOL    MW427950   0.221   5.082   2.707 -0.7633  0.0379 -0.2783
 7045SOL     OW27951   5.669   3.506   4.946  0.5566  0.5506 -0.2897
 7045SOL    HW227952   5.710   3.579   4.900  2.4667 -0.4194 -0.2198
 7045SOL    HW327953   5.709   3.507   5.033  1.3180 -1.1378 -0.6003
 7045SOL    MW427954   5.679   3.516   4.952  0.2194  0.8408 -0.1567
 7046SOL     OW27955   2.742   2.490   1.613 -0.1025  0.4922  0.0338
 7046SOL    HW227956   2.816   2.429   1.605 -1.0487 -0.5110 -1.5144
 7046SOL    HW327957   2.769   2.550   1.683  1.8935 -0.2345 -0.0279
 7046SOL    MW427958   2.756   2.490   1.621 -0.2718 -0.2266 -0.8492
 7047SOL     OW27959   2.900   5.295   1.236  0.1348  0.5063 -0.0583
 7047SOL    HW227960   2.856   5.212   1.215  1.2430 -0.0825 -0.0931
 7047SOL    HW327961   2.866   5.357   1.171 -1.6040  0.4083  0.6860
 7047SOL    MW427962   2.890   5.292   1.224  0.5049  0.1505 -0.3969
 7048SOL     OW27963   2.634   1.365   2.059 -0.0225  0.3124  0.2594
 7048SOL    HW227964   2.696   1.400   2.123 -0.5548 -0.3246  1.1362
 7048SOL    HW327965   2.654   1.271   2.055 -0.5441  0.2051  0.1143
 7048SOL    MW427966   2.645   1.357   2.067 -0.1419  0.0142 -0.0628
 7049SOL     OW27967   3.153   3.469   0.064  0.2903  0.4219 -0.4582
 7049SOL    HW227968   3.229   3.430   0.022 -0.2411 -1.7242  0.4644
 7049SOL    HW327969   3.189   3.516   0.140  0.7761  0.3317 -0.6300
 7049SOL    MW427970   3.168   3.470   0.068  0.0758  0.0685 -0.0604
 7050SOL     OW27971   5.487   2.357   5.514  0.2766  0.1415 -0.1533
 7050SOL    HW227972   5.507   2.275   5.559  0.2505  0.0329 -0.3379
 7050SOL    HW327973   5.432   2.331   5.440  0.2775  0.3249 -0.2197
 7050SOL    MW427974   5.482   2.343   5.510  0.6370 -0.1024  0.3211
 7051SOL     OW27975   5.281   2.367   5.725  0.1501  0.4533 -0.0044
 7051SOL    HW227976   5.356   2.371   5.783  0.8010  1.7920 -0.8785
 7051SOL    HW327977   5.318   2.358   5.637 -0.8311 -2.8419 -0.2020
 7051SOL    MW427978   5.296   2.367   5.721  0.4928  0.4238  0.9955
 7052SOL     OW27979   0.670   4.612   6.244 -0.1488 -0.3017  0.2853
 7052SOL    HW227980   0.655   4.540   6.183 -0.5653  2.3819 -3.0986
 7052SOL    HW327981   0.583   4.637   6.274 -0.0279 -0.9028  1.2034
 7052SOL    MW427982   0.657   4.606   6.240  0.2605  0.0847  0.0395
 7053SOL     OW27983   3.633   0.663   3.875 -0.3657  0.5925 -0.0622
 7053SOL    HW227984   3.562   0.599   3.876 -1.3960  1.6861  1.0601
 7053SOL    HW327985   3.613   0.722   3.802 -0.0508  0.3139 -0.3757
 7053SOL    MW427986   3.621   0.663   3.866  0.1663 -0.0417  0.0752
 7054SOL     OW27987   3.470   5.689   3.268 -0.0117  0.2964  0.3424
 7054SOL    HW227988   3.557   5.726   3.257 -0.5361  1.3244 -0.5659
 7054SOL    HW327989   3.480   5.623   3.336  1.8136 -0.8520 -0.9768
 7054SOL    MW427990   3.483   5.685   3.276  0.3664 -0.6944  0.2289
 7055SOL     OW27991   6.240   1.833   5.975 -0.0378  0.5903  0.0051
 7055SOL    HW227992   6.335   1.836   5.987  0.1008 -0.3275 -0.7596
 7055SOL    HW327993   6.218   1.917   5.936 -0.0632  2.3435  3.3603
 7055SOL    MW427994   6.250   1.845   5.972 -0.5180  0.2488  0.4652
 7056SOL     OW27995   5.723   2.058   5.306 -0.7382  0.3900  0.7708
 7056SOL    HW227996   5.703   2.032   5.216  0.4500  0.0887  0.5762
 7056SOL    HW327997   5.726   2.154   5.303 -0.5765  0.3787  0.4599
 7056SOL    MW427998   5.720   2.067   5.293  0.2613 -0.3326  1.1630
 7057SOL     OW27999   2.209   4.183   0.251 -0.0582  0.2152 -0.3988
 7057SOL    HW228000   2.137   4.154   0.195 -0.9816  1.5916  0.0163
 7057SOL    HW328001   2.285   4.135   0.219 -0.9620 -0.5564 -1.4856
 7057SOL    MW428002   2.209   4.173   0.239  0.1342 -0.4772 -0.9554
 7058SOL     OW28003   5.907   1.305   1.430  0.2422  0.2262  0.1113
 7058SOL    HW228004   5.987   1.315   1.481  0.3548 -0.6149  0.1071
 7058SOL    HW328005   5.845   1.265   1.490  0.8374 -2.2203 -0.8004
 7058SOL    MW428006   5.909   1.301   1.445  0.4050 -0.1089  0.2002
 7059SOL     OW28007   5.433   5.408   2.476 -0.4182  0.4186  0.3895
 7059SOL    HW228008   5.434   5.368   2.564 -1.5524  2.1984  1.2671
 7059SOL    HW328009   5.404   5.337   2.419  1.4188 -1.0983  1.2453
 7059SOL    MW428010   5.429   5.393   2.480  0.5618 -0.1045  0.0418
 7060SOL     OW28011   4.425   1.530   2.316 -0.2338  0.0473  0.2648
 7060SOL    HW228012   4.400   1.560   2.403 -0.3919  1.4286 -0.2177
 7060SOL    HW328013   4.480   1.601   2.281 -3.4647  1.6093 -2.2764
 7060SOL    MW428014   4.429   1.543   2.323  0.1348  0.0221 -0.4467
 7061SOL     OW28015   2.108   5.269   2.362  0.2836  0.2257  0.6923
 7061SOL    HW228016   2.098   5.198   2.300  1.0291  0.0990  0.7001
 7061SOL    HW328017   2.085   5.231   2.447 -1.9137  0.7238  0.3587
 7061SOL    MW428018   2.104   5.255   2.365 -0.3948  0.1499  0.3334
 7062SOL     OW28019   4.124   3.564   5.175  0.4805 -0.3448  0.2887
 7062SOL    HW228020   4.192   3.623   5.142  0.6016 -0.3473  0.5300
 7062SOL    HW328021   4.081   3.530   5.097  0.5265 -0.0714  0.1438
 7062SOL    MW428022   4.127   3.568   5.160  0.0488  0.5579  0.4639
 7063SOL     OW28023   1.928   1.631   0.109 -0.5220 -0.2181  0.0341
 7063SOL    HW228024   1.955   1.700   0.049 -2.0582 -0.3591 -0.8896
 7063SOL    HW328025   1.898   1.560   0.052 -0.5375 -0.9824  0.9662
 7063SOL    MW428026   1.927   1.630   0.094 -1.1041  0.0855  0.0470
 7064SOL     OW28027   3.565   4.963   4.215 -0.1922  0.0344  0.7514
 7064SOL    HW228028   3.651   4.935   4.182  0.1952  2.1613 -0.2229
 7064SOL    HW328029   3.544   5.040   4.162 -3.0087 -0.7740  0.5553
 7064SOL    MW428030   3.574   4.970   4.203  0.1718  0.2010 -0.2298
 7065SOL     OW28031   1.665   3.846   4.551  0.1963  0.0852 -0.5728
 7065SOL    HW228032   1.583   3.820   4.592  0.8657 -1.4511 -0.1185
 7065SOL    HW328033   1.680   3.936   4.581 -1.1234  0.2544 -0.3823
 7065SOL    MW428034   1.656   3.854   4.560 -0.3607  0.1112 -0.3026
 7066SOL     OW28035   5.337   5.684   4.286 -0.1108  0.1202  0.3956
 7066SOL    HW228036   5.309   5.721   4.202  0.6575 -0.1625 -0.0016
 7066SOL    HW328037   5.381   5.602   4.262 -0.8648 -0.5344  1.1732
 7066SOL    MW428038   5.339   5.678   4.272 -0.0418  0.5641  0.2412
 7067SOL     OW28039   2.054   3.551   6.157  0.2529 -0.1787 -0.4126
 7067SOL    HW228040   2.135   3.563   6.206  0.8378 -1.6362 -0.9706
 7067SOL    HW328041   2.082   3.519   6.071 -0.8073  1.3586 -1.3923
 7067SOL    MW428042   2.068   3.548   6.152 -0.1938  0.1138  0.1323
 7068SOL     OW28043   4.506   0.073   5.187  0.4323 -0.0392  0.4324
 7068SOL    HW228044   4.540   0.066   5.098  0.1448 -1.1880  0.3996
 7068SOL    HW328045   4.584   0.068   5.243  0.5230 -0.4648  0.2750
 7068SOL    MW428046   4.521   0.071   5.183 -0.6474  0.1297  0.4472
 7069SOL     OW28047   1.960   3.651   1.956 -0.7369  0.3243 -0.4427
 7069SOL    HW228048   2.027   3.667   2.022 -0.7736 -2.3424  0.3699
 7069SOL    HW328049   1.881   3.692   1.991 -0.6749 -0.7686  1.0583
 7069SOL    MW428050   1.959   3.658   1.969 -0.0167 -0.2071 -0.1579
 7070SOL     OW28051   2.708   4.701   2.312  0.6077  0.0013  0.6268
 7070SOL    HW228052   2.708   4.610   2.345 -0.7495 -0.5886 -0.8908
 7070SOL    HW328053   2.798   4.715   2.283  0.7787 -0.9522  0.6457
 7070SOL    MW428054   2.720   4.691   2.313 -0.0352 -0.1665  0.2389
 7071SOL     OW28055   1.082   5.755   3.019  0.2381 -0.3398 -0.1225
 7071SOL    HW228056   1.161   5.753   2.966 -0.8859 -0.9939 -1.8776
 7071SOL    HW328057   1.074   5.847   3.046  1.2498 -0.1490 -0.4293
 7071SOL    MW428058   1.091   5.767   3.016 -0.3071  0.1466 -0.4731
 7072SOL     OW28059   5.519   2.173   6.290 -0.3326 -0.0574 -0.0555
 7072SOL    HW228060   5.434   2.197   6.254 -0.6670 -2.3084 -0.9709
 7072SOL    HW328061   5.502   2.158   6.383 -0.6758  0.5671 -0.0106
 7072SOL    MW428062   5.506   2.174   6.298 -0.5522  0.3159  0.0744
 7073SOL     OW28063   1.353   2.692   3.924 -0.1082  0.8129 -0.1638
 7073SOL    HW228064   1.286   2.759   3.938 -0.4396  0.8109 -1.5762
 7073SOL    HW328065   1.307   2.623   3.875  0.2867 -0.3507  1.0415
 7073SOL    MW428066   1.338   2.692   3.919 -0.3748  0.4451  0.6553
 7074SOL     OW28067   6.354   1.559   1.337  0.3039 -0.2541 -0.0909
 7074SOL    HW228068   6.385   1.486   1.390 -0.3602 -0.2699  0.2866
 7074SOL    HW328069   6.428   1.619   1.334  0.5615 -0.5416  0.3341
 7074SOL    MW428070   6.368   1.557   1.344 -0.4013  0.1225  0.3185
 7075SOL     OW28071   1.539   2.079   5.455  0.0461  0.3374 -0.9036
 7075SOL    HW228072   1.556   2.173   5.457 -0.9111  0.5196 -0.4676
 7075SOL    HW328073   1.602   2.041   5.516  0.6449  0.6528 -1.3194
 7075SOL    MW428074   1.549   2.086   5.463 -0.0265 -0.0747  0.1406
 7076SOL     OW28075   2.302   5.244   5.791 -0.1578 -0.3365  0.6167
 7076SOL    HW228076   2.242   5.224   5.719  0.3655  1.2290 -0.3042
 7076SOL    HW328077   2.264   5.321   5.833  0.9587  0.4128  0.2885
 7076SOL    MW428078   2.289   5.251   5.787  0.5340  0.4124 -0.0521
 7077SOL     OW28079   2.584   6.282   5.484 -0.4234  0.9741 -0.0276
 7077SOL    HW228080   2.624   6.330   5.556  3.0816  2.1515 -2.4817
 7077SOL    HW328081   2.632   6.199   5.481  0.4768  1.5013 -1.7255
 7077SOL    MW428082   2.596   6.277   5.493 -0.2689 -0.0846 -0.4253
 7078SOL     OW28083   5.967   4.783   1.540  0.1901  0.0929 -0.8406
 7078SOL    HW228084   5.878   4.797   1.507  0.2191 -0.4146 -1.1294
 7078SOL    HW328085   5.976   4.688   1.547  0.6697  0.1461 -0.7007
 7078SOL    MW428086   5.957   4.773   1.537  0.4152  0.1055  0.3722
 7079SOL     OW28087   0.175   5.728   1.210  0.3683 -0.1064  0.0320
 7079SOL    HW228088   0.170   5.754   1.302 -0.3438 -1.3891  0.3830
 7079SOL    HW328089   0.092   5.759   1.173  1.0269  1.1884 -0.4179
 7079SOL    MW428090   0.163   5.735   1.218 -0.1998 -0.3699  0.1084
 7080SOL     OW28091   1.703   5.660   2.179 -0.2339 -0.1171 -0.5951
 7080SOL    HW228092   1.653   5.605   2.119 -3.3006  1.0257  0.7011
 7080SOL    HW328093   1.686   5.622   2.266 -1.9960  2.3997  0.2772
 7080SOL    MW428094   1.694   5.648   2.183 -0.7245  0.1753  0.0103
 7081SOL     OW28095   0.568   5.785   0.600  0.0520  0.4117  0.3584
 7081SOL    HW228096   0.545   5.878   0.592 -0.1357  0.2603 -1.2077
 7081SOL    HW328097   0.521   5.756   0.679  0.9591  1.8618  1.4941
 7081SOL    MW428098   0.559   5.793   0.610 -0.2690 -0.3673  0.0517
 7082SOL     OW28099   6.176   4.775   2.122 -0.1297 -0.6215  0.4867
 7082SOL    HW228100   6.081   4.777   2.107 -0.0906 -0.4777  0.2523
 7082SOL    HW328101   6.186   4.793   2.215 -0.2573  1.0005  0.2105
 7082SOL    MW428102   6.165   4.777   2.132  0.0939  0.1287  0.3475
 7083SOL     OW28103   3.507   0.345   3.431  0.0096  0.4121 -0.2693
 7083SOL    HW228104   3.565   0.362   3.357 -1.6210  0.9534 -1.4688
 7083SOL    HW328105   3.557   0.375   3.507  1.6786 -0.0622 -1.1152
 7083SOL    MW428106   3.521   0.351   3.432  0.2724  0.4474 -0.5038
 7084SOL     OW28107   1.040   2.673   3.812 -0.6136  0.1812 -0.0589
 7084SOL    HW228108   0.949   2.667   3.783 -0.6447 -0.4865  0.1572
 7084SOL    HW328109   1.091   2.663   3.732 -0.7215 -0.1194 -0.0919
 7084SOL    MW428110   1.034   2.671   3.798  0.0562  0.0542 -0.3178
 7085SOL     OW28111   3.709   2.147   6.269 -0.2781  0.2224 -0.0189
 7085SOL    HW228112   3.656   2.114   6.340 -0.5496  1.8757  0.5925
 7085SOL    HW328113   3.651   2.204   6.219  0.4314  0.6568 -0.3804
 7085SOL    MW428114   3.695   2.150   6.271 -0.0389 -0.1680 -0.2927
 7086SOL     OW28115   4.951   2.047   0.180 -0.1161 -0.2914 -0.3310
 7086SOL    HW228116   4.978   2.027   0.269  0.2359 -1.1513 -0.6204
 7086SOL    HW328117   4.855   2.055   0.184 -0.2162 -1.4624 -0.0807
 7086SOL    MW428118   4.942   2.046   0.192 -0.2743  0.6080 -0.2280
 7087SOL     OW28119   2.265   1.411   5.012  0.2624 -0.3713 -0.1887
 7087SOL    HW228120   2.199   1.362   4.962  0.4563 -0.6782 -0.1429
 7087SOL    HW328121   2.259   1.377   5.101 -0.7139  0.8009  0.2322
 7087SOL    MW428122   2.255   1.400   5.017 -0.4044 -0.0392 -0.3331
 7088SOL     OW28123   2.984   1.567   4.838 -0.6569  0.1078  0.0556
 7088SOL    HW228124   3.041   1.531   4.906 -0.2337 -0.6747 -0.6838
 7088SOL    HW328125   2.915   1.501   4.828 -0.3943 -0.0671 -0.6605
 7088SOL    MW428126   2.982   1.553   4.845 -0.4513 -0.1996  0.3595
 7089SOL     OW28127   0.881   0.981   4.821  0.9458  0.0790 -0.4173
 7089SOL    HW228128   0.883   0.903   4.877 -0.4138 -1.1000 -1.9221
 7089SOL    HW328129   0.849   1.050   4.880 -0.7928 -1.1992  0.2384
 7089SOL    MW428130   0.877   0.980   4.836  0.1891 -0.2624 -0.3862
 7090SOL     OW28131   5.577   2.141   2.463 -0.3386  0.0212  0.4743
 7090SOL    HW228132   5.657   2.119   2.414  1.3497  0.4087  2.8974
 7090SOL    HW328133   5.544   2.219   2.420  0.2130 -0.4946 -0.9644
 7090SOL    MW428134   5.583   2.148   2.451 -0.2894  0.0700 -0.0861
 7091SOL     OW28135   3.156   2.994   1.600 -0.4583 -0.0586  0.2367
 7091SOL    HW228136   3.186   2.987   1.510  0.7233  0.4986  0.5630
 7091SOL    HW328137   3.226   2.955   1.652 -1.2373 -0.6075  0.9055
 7091SOL    MW428138   3.169   2.988   1.595 -0.4249  0.3403  0.0905
 7092SOL     OW28139   4.319   1.067   0.980  0.1059 -0.0294  0.3311
 7092SOL    HW228140   4.409   1.038   0.998  0.0642 -0.6613 -0.4287
 7092SOL    HW328141   4.265   0.989   0.996  0.0804 -0.6840 -2.5505
 7092SOL    MW428142   4.324   1.053   0.985 -0.0585  0.1862 -0.4244
 7093SOL     OW28143   6.156   5.569   2.360 -0.0457 -0.0906 -0.6390
 7093SOL    HW228144   6.172   5.622   2.282 -0.1346  0.1126 -0.5212
 7093SOL    HW328145   6.243   5.546   2.393  0.0387  1.2282  0.1537
 7093SOL    MW428146   6.169   5.573   2.354 -0.1390 -0.1508 -0.1156
 7094SOL     OW28147   3.534   3.069   1.321  0.2688 -0.1929 -0.5667
 7094SOL    HW228148   3.537   3.119   1.240  0.5965  1.0898  0.2158
 7094SOL    HW328149   3.464   3.110   1.372  1.5850  0.5034  0.7359
 7094SOL    MW428150   3.525   3.081   1.317  0.6470 -0.2085 -0.0475
 7095SOL     OW28151   3.725   4.723   0.682 -0.5708 -0.2531 -0.0362
 7095SOL    HW228152   3.635   4.696   0.666  0.3319 -2.4690 -1.7881
 7095SOL    HW328153   3.779   4.654   0.644  1.9068  0.6431  1.5502
 7095SOL    MW428154   3.720   4.711   0.675  0.2845  0.1167 -0.1971
 7096SOL     OW28155   1.496   4.565   3.095  0.6419 -0.0617 -0.1588
 7096SOL    HW228156   1.485   4.538   3.004  2.0430 -0.4612 -0.2346
 7096SOL    HW328157   1.430   4.633   3.108 -1.3942 -1.8410 -0.6549
 7096SOL    MW428158   1.486   4.570   3.085  0.5357  0.4937  0.2883
 7097SOL     OW28159   1.128   2.430   0.403 -0.4564 -0.0643  0.5149
 7097SOL    HW228160   1.071   2.427   0.480 -1.0903  2.3249  0.2259
 7097SOL    HW328161   1.208   2.472   0.433  0.3585 -1.4960  0.4251
 7097SOL    MW428162   1.131   2.435   0.417 -0.6726 -0.2933  0.0323
 7098SOL     OW28163   1.948   6.135   3.634 -0.3496 -0.8415 -0.1825
 7098SOL    HW228164   2.012   6.070   3.661  0.5649  0.1836  0.1811
 7098SOL    HW328165   1.996   6.192   3.573  0.0667  1.7363  2.3271
 7098SOL    MW428166   1.963   6.134   3.629 -0.2276 -0.3268  0.0916
 7099SOL     OW28167   4.664   2.865   0.356 -0.1791  0.2742  0.0794
 7099SOL    HW228168   4.713   2.831   0.281 -1.1366 -0.0751 -0.4036
 7099SOL    HW328169   4.731   2.882   0.422  0.4021 -2.2907  0.2519
 7099SOL    MW428170   4.679   2.863   0.355  0.1747  0.5115  0.1798
 7100SOL     OW28171   4.186   0.779   2.870 -0.2867  0.1977 -0.0019
 7100SOL    HW228172   4.091   0.782   2.879 -0.2372 -0.5055  0.9268
 7100SOL    HW328173   4.206   0.689   2.844  0.2767 -0.4618  2.4489
 7100SOL    MW428174   4.176   0.768   2.868 -0.1431 -0.2644  0.0979
 7101SOL     OW28175   0.382   0.535   1.411 -0.3945 -0.0153  0.1762
 7101SOL    HW228176   0.447   0.522   1.480  0.7484  3.2473 -0.0952
 7101SOL    HW328177   0.433   0.535   1.330 -1.2131 -0.3670 -0.3574
 7101SOL    MW428178   0.398   0.533   1.410  0.1639  0.0887  0.1933
 7102SOL     OW28179   3.566   0.896   5.061 -0.0766  0.6156 -0.6079
 7102SOL    HW228180   3.476   0.894   5.093 -0.4790  2.6913 -1.4507
 7102SOL    HW328181   3.565   0.841   4.983 -0.5495  0.4407 -0.4811
 7102SOL    MW428182   3.554   0.889   5.055 -0.5825  0.5035  0.2166
 7103SOL     OW28183   5.399   3.425   0.612  0.3440  0.0440  0.3536
 7103SOL    HW228184   5.304   3.433   0.608  0.1896 -0.8663  1.7535
 7103SOL    HW328185   5.430   3.490   0.549 -1.1380  2.3841  1.8757
 7103SOL    MW428186   5.390   3.435   0.603 -0.0866 -0.6425  0.4032
 7104SOL     OW28187   6.195   1.263   3.754 -0.3321 -0.2115 -0.1609
 7104SOL    HW228188   6.180   1.267   3.660 -1.0857  0.1203 -0.0441
 7104SOL    HW328189   6.178   1.353   3.784 -3.0560 -0.9161  0.6694
 7104SOL    MW428190   6.191   1.276   3.746 -0.0802  0.0821  0.3565
 7105SOL     OW28191   2.760   1.574   2.212  0.0750  0.3742 -0.3469
 7105SOL    HW228192   2.825   1.520   2.257 -0.4965  1.5732  2.1560
 7105SOL    HW328193   2.812   1.635   2.159  0.8602 -0.4748 -0.5685
 7105SOL    MW428194   2.776   1.575   2.211  0.3003  0.5747 -0.0293
 7106SOL     OW28195   3.940   5.827   4.515  0.3230  0.0416 -0.1370
 7106SOL    HW228196   4.027   5.867   4.522  0.2488  0.3372 -0.8271
 7106SOL    HW328197   3.934   5.770   4.591  0.8047  0.6293  0.3535
 7106SOL    MW428198   3.951   5.825   4.526  0.0414  0.3165  0.4729
 7107SOL     OW28199   4.152   1.669   3.977  0.5419  0.1356 -0.5298
 7107SOL    HW228200   4.065   1.664   3.938  1.5371 -0.1861 -2.8822
 7107SOL    HW328201   4.148   1.743   4.037 -1.9908 -1.2976  1.3005
 7107SOL    MW428202   4.140   1.678   3.980 -0.1626  0.0029 -0.2657
 7108SOL     OW28203   0.948   3.036   3.139  0.0216 -0.2318 -0.1249
 7108SOL    HW228204   0.857   3.017   3.116 -0.8070  0.3946  2.3730
 7108SOL    HW328205   0.954   3.131   3.135  0.5463 -0.2654 -0.1285
 7108SOL    MW428206   0.937   3.046   3.135 -0.3321  0.3075 -0.1582
 7109SOL     OW28207   0.169   2.925   2.843 -0.5606 -0.2250  0.2268
 7109SOL    HW228208   0.075   2.944   2.840 -0.4431  0.3650  0.1374
 7109SOL    HW328209   0.175   2.832   2.823 -1.1288 -0.2721  0.2509
 7109SOL    MW428210   0.157   2.915   2.840  0.1814 -0.1929  0.0521
 7110SOL     OW28211   2.594   6.058   0.031 -0.0692  0.2204  0.5808
 7110SOL    HW228212   2.557   5.976   0.001 -0.7766  1.4212 -2.1441
 7110SOL    HW328213   2.518   6.114   0.049  0.3934  0.2929  2.5239
 7110SOL    MW428214   2.579   6.055   0.030 -0.2024  0.0537  0.0184
 7111SOL     OW28215   5.496   3.310   5.871  0.4326  0.4514 -0.4415
 7111SOL    HW228216   5.508   3.305   5.966 -0.7758  2.3853 -0.1209
 7111SOL    HW328217   5.445   3.232   5.849 -0.2220  0.5299  0.7109
 7111SOL    MW428218   5.491   3.299   5.881  0.4560 -0.0240 -0.3835
 7112SOL     OW28219   1.914   3.273   3.324 -0.4110 -0.1690  0.0927
 7112SOL    HW228220   1.898   3.185   3.359  1.5081 -0.7146 -0.2421
 7112SOL    HW328221   1.854   3.330   3.372 -0.1258 -1.3531  1.9702
 7112SOL    MW428222   1.904   3.269   3.335  0.3227  0.3281  0.3980
 7113SOL     OW28223   1.301   1.236   0.155  0.1612  0.1849  0.2565
 7113SOL    HW228224   1.225   1.186   0.124  1.5209 -0.6179 -1.9420
 7113SOL    HW328225   1.278   1.259   0.246 -2.1871 -1.0294  0.0508
 7113SOL    MW428226   1.288   1.232   0.163  0.0932  0.3270 -0.0370
 7114SOL     OW28227   0.295   5.579   0.595 -0.0341  0.1510  0.1259
 7114SOL    HW228228   0.284   5.665   0.555 -0.9804  0.3147  0.6982
 7114SOL    HW328229   0.234   5.523   0.546  1.1577 -0.3920 -0.7774
 7114SOL    MW428230   0.285   5.583   0.583 -0.7173  1.1927  0.3609
 7115SOL     OW28231   0.519   3.126   2.164  0.0062  0.1137 -0.4540
 7115SOL    HW228232   0.453   3.195   2.167  0.4802  0.5491  0.0334
 7115SOL    HW328233   0.518   3.096   2.073  0.0868  1.0396 -0.7628
 7115SOL    MW428234   0.510   3.131   2.152 -0.2030  0.0427  0.0489
 7116SOL     OW28235   4.010   1.669   5.924 -0.4686  0.8269 -0.0421
 7116SOL    HW228236   3.942   1.652   5.858  0.1410  1.9591 -0.9955
 7116SOL    HW328237   4.076   1.602   5.909  1.1479  2.7890 -2.7100
 7116SOL    MW428238   4.009   1.658   5.913 -0.2722 -0.4239 -0.1384
 7117SOL     OW28239   6.165   1.297   3.485  0.0543 -0.3659 -0.0984
 7117SOL    HW228240   6.218   1.369   3.451  0.4393 -0.9029 -0.6520
 7117SOL    HW328241   6.080   1.306   3.443  0.4553 -0.8903 -1.0536
 7117SOL    MW428242   6.161   1.307   3.475  0.2424 -1.4014  0.1847
 7118SOL     OW28243   2.571   1.412   4.977  0.1146 -0.4156 -0.1988
 7118SOL    HW228244   2.477   1.426   4.964  0.1548 -1.1372 -1.4848
 7118SOL    HW328245   2.604   1.390   4.890  1.6246  0.5886  0.0743
 7118SOL    MW428246   2.563   1.411   4.964  0.2295 -0.6950  0.4387
 7119SOL     OW28247   6.064   0.882   0.692  0.2242  0.4335 -0.1582
 7119SOL    HW228248   6.080   0.918   0.779  0.4926 -1.5586  0.6890
 7119SOL    HW328249   6.038   0.791   0.709 -0.4128  0.2103 -2.1344
 7119SOL    MW428250   6.063   0.874   0.706 -0.7277 -0.5441  0.4364
 7120SOL     OW28251   6.093   2.514   3.851  0.1513 -0.7687 -0.2528
 7120SOL    HW228252   6.080   2.434   3.799 -1.2155 -1.1975  0.6810
 7120SOL    HW328253   6.013   2.521   3.903  0.4546  0.9759  0.0181
 7120SOL    MW428254   6.081   2.504   3.851 -0.0452 -0.2235 -0.8108
 7121SOL     OW28255   2.067   0.550   2.326 -0.3232  0.0164  0.2770
 7121SOL    HW228256   2.102   0.480   2.381  0.0941 -0.1506 -0.1909
 7121SOL    HW328257   2.144   0.596   2.293 -0.5901  1.7652  1.8911
 7121SOL    MW428258   2.081   0.547   2.329  0.2431 -0.4149  0.0701
 7122SOL     OW28259   5.230   1.091   4.756  0.1007 -0.4158  0.2426
 7122SOL    HW228260   5.294   1.086   4.686  1.0655  1.1898  0.9593
 7122SOL    HW328261   5.170   1.018   4.739  0.2360 -0.0179 -2.2947
 7122SOL    MW428262   5.230   1.080   4.745 -0.3951  0.0413  0.0845
 7123SOL     OW28263   5.934   3.499   4.692  0.5634  0.2596 -0.5663
 7123SOL    HW228264   6.027   3.519   4.706  0.7987 -1.3407  0.4298
 7123SOL    HW328265   5.932   3.404   4.678 -0.9456  0.2416 -0.3750
 7123SOL    MW428266   5.946   3.489   4.692 -0.2012 -0.1314  0.5639
 7124SOL     OW28267   1.425   2.210   2.456  0.6585 -0.1249 -0.0211
 7124SOL    HW228268   1.396   2.237   2.369  2.7474  0.8816 -0.4698
 7124SOL    HW328269   1.374   2.265   2.516  0.7621  0.7441 -0.7062
 7124SOL    MW428270   1.414   2.221   2.453 -0.1109 -0.1822  0.0662
 7125SOL     OW28271   0.664   1.375   0.556  0.3096 -0.0261 -0.2931
 7125SOL    HW228272   0.643   1.466   0.536 -0.1358 -0.1792 -0.5425
 7125SOL    HW328273   0.643   1.366   0.650  1.0048  0.3031 -0.1006
 7125SOL    MW428274   0.658   1.386   0.566 -0.3037  0.4398  0.1205
 7126SOL     OW28275   5.579   5.936   5.766  0.0860 -0.1548 -0.0134
 7126SOL    HW228276   5.596   5.924   5.859 -0.0551 -1.2001 -0.1105
 7126SOL    HW328277   5.629   6.015   5.743  1.9789 -1.1489  0.4741
 7126SOL    MW428278   5.588   5.945   5.775  0.2313  0.2535 -0.3306
 7127SOL     OW28279   4.737   2.170   6.349  0.3988 -0.1668 -0.4427
 7127SOL    HW228280   4.815   2.120   6.325  0.8630  0.3431 -0.0086
 7127SOL    HW328281   4.714   2.138   6.437  1.8129  1.6628  0.6774
 7127SOL    MW428282   4.744   2.159   6.358  0.2547 -0.1254  0.2406
 7128SOL     OW28283   4.457   5.108   0.170 -0.2591  0.1767  0.4828
 7128SOL    HW228284   4.457   5.174   0.239 -0.6577  0.5466  0.1378
 7128SOL    HW328285   4.404   5.037   0.205  0.3236 -0.0444  0.9296
 7128SOL    MW428286   4.450   5.108   0.184 -0.2303  0.4192 -0.5164
 7129SOL     OW28287   5.385   3.257   2.559  0.3979 -0.0931 -0.0970
 7129SOL    HW228288   5.481   3.254   2.557  0.4079  0.5042 -1.6638
 7129SOL    HW328289   5.365   3.323   2.626  1.0391 -0.7017  0.7221
 7129SOL    MW428290   5.395   3.266   2.568  0.6010  0.7551 -0.7280
 7130SOL     OW28291   3.256   2.585   0.029 -0.3802  0.6365  0.7861
 7130SOL    HW228292   3.187   2.633  -0.015  0.8241  1.6330 -0.0816
 7130SOL    HW328293   3.262   2.625   0.116 -0.2769  1.1690  0.5344
 7130SOL    MW428294   3.248   2.596   0.035 -0.3603  0.0872 -0.0019
 7131SOL     OW28295   3.021   2.740   6.316 -0.4735 -0.2123  0.0929
 7131SOL    HW228296   3.029   2.835   6.314 -2.1555 -0.0602 -0.3988
 7131SOL    HW328297   3.067   2.711   6.237  2.0496 -0.0385  1.3883
 7131SOL    MW428298   3.028   2.749   6.305 -0.0513 -0.0712 -0.0391
 7132SOL     OW28299   4.722   5.486   0.675  0.0893 -0.0089 -0.5831
 7132SOL    HW228300   4.627   5.491   0.687  0.2087  0.1876  0.3221
 7132SOL    HW328301   4.755   5.453   0.758  0.6521 -1.9954 -1.5271
 7132SOL    MW428302   4.714   5.482   0.688 -0.1183  0.4108 -0.0191
 7133SOL     OW28303   3.645   3.818   1.152 -0.0948 -0.0343 -0.2518
 7133SOL    HW228304   3.564   3.774   1.176  0.3384 -0.7415 -0.0646
 7133SOL    HW328305   3.670   3.779   1.068  1.0400 -1.1816  0.6002
 7133SOL    MW428306   3.638   3.807   1.144  0.7278 -0.1430 -0.7555
 7134SOL     OW28307   1.582   0.081   1.989 -0.7655  0.5604 -0.0435
 7134SOL    HW228308   1.664   0.060   1.946 -0.9216 -0.2839  0.0623
 7134SOL    HW328309   1.607   0.140   2.061 -0.2180  0.1101  0.1414
 7134SOL    MW428310   1.596   0.086   1.993 -0.7227  0.8663  0.0791
 7135SOL     OW28311   6.063   2.353   4.423 -0.0863 -0.3137  0.3709
 7135SOL    HW228312   6.071   2.445   4.396  1.5622 -0.6535 -0.4421
 7135SOL    HW328313   6.048   2.357   4.518 -0.4189  0.7909  0.2867
 7135SOL    MW428314   6.062   2.366   4.432 -0.1444  0.5552  0.1693
 7136SOL     OW28315   0.601   3.625   0.974 -0.5126 -0.1155  0.3083
 7136SOL    HW228316   0.691   3.634   0.942 -0.9099 -1.0691 -1.1769
 7136SOL    HW328317   0.574   3.714   0.994  1.6805  0.0078  3.6298
 7136SOL    MW428318   0.610   3.638   0.972  0.3110  0.2087 -0.4037
 7137SOL     OW28319   1.016   0.201   3.072 -0.0887  0.1046  0.1638
 7137SOL    HW228320   1.023   0.292   3.042  1.4223  0.0083  0.1217
 7137SOL    HW328321   1.042   0.205   3.165  0.2987 -0.3228  0.0744
 7137SOL    MW428322   1.020   0.214   3.081 -0.0166  0.6331 -0.3254
 7138SOL     OW28323   5.022   4.458   4.640  0.5883 -0.2928  0.0543
 7138SOL    HW228324   4.932   4.456   4.606  0.5492 -1.1771  0.1827
 7138SOL    HW328325   5.020   4.525   4.708  0.3414  0.5740 -0.7792
 7138SOL    MW428326   5.010   4.467   4.645 -0.0466  0.2449  0.1863
 7139SOL     OW28327   0.068   4.495   1.891 -0.4588  0.0759  0.3453
 7139SOL    HW228328   0.068   4.414   1.841  1.2334  0.6493 -0.6900
 7139SOL    HW328329  -0.020   4.531   1.878 -0.6358 -0.6823 -0.7431
 7139SOL    MW428330   0.056   4.489   1.882  0.4461  0.0330 -0.1224
 7140SOL     OW28331   1.679   3.369   1.214 -0.7048  0.5560 -0.5111
 7140SOL    HW228332   1.771   3.370   1.188 -0.2737  0.4446  0.8886
 7140SOL    HW328333   1.633   3.411   1.142  0.2814 -0.4389 -1.7584
 7140SOL    MW428334   1.685   3.375   1.201 -0.1286 -0.3103 -0.3450
 7141SOL     OW28335   0.212   0.630   2.256 -0.3903  0.0589 -0.2275
 7141SOL    HW228336   0.230   0.714   2.214 -0.6441 -0.5008 -1.4979
 7141SOL    HW328337   0.160   0.582   2.192 -0.6133 -0.9091  0.6600
 7141SOL    MW428338   0.208   0.635   2.242  0.2351  0.1148 -0.4493
 7142SOL     OW28339   4.850   5.692   4.887  0.1600 -0.7205 -0.0801
 7142SOL    HW228340   4.867   5.775   4.931 -0.3819 -1.1547  0.9837
 7142SOL    HW328341   4.813   5.636   4.955  0.5816 -1.8608 -0.7561
 7142SOL    MW428342   4.847   5.695   4.902  0.0721  0.1678  0.4947
 7143SOL     OW28343   3.997   4.550   5.571 -0.0906 -0.4510  0.6488
 7143SOL    HW228344   4.007   4.635   5.614 -0.3457  0.7045 -1.4474
 7143SOL    HW328345   3.911   4.554   5.530  0.4375 -1.1842 -0.5697
 7143SOL    MW428346   3.987   4.562   5.572  0.2390 -0.7161  0.0273
 7144SOL     OW28347   1.591   4.818   5.504  0.1644  0.8425  0.5685
 7144SOL    HW228348   1.653   4.832   5.575  0.5340 -0.3816  0.5173
 7144SOL    HW328349   1.640   4.766   5.439 -0.0657  2.1730 -0.7233
 7144SOL    MW428350   1.606   4.813   5.505 -0.3629  0.2705 -0.0933
 7145SOL     OW28351   3.746   0.365   5.596 -0.2601  0.2983  0.2101
 7145SOL    HW228352   3.704   0.365   5.510  1.0171 -0.9366 -0.4522
 7145SOL    HW328353   3.680   0.402   5.655 -2.5434 -2.0302 -0.6686
 7145SOL    MW428354   3.732   0.370   5.592  0.5374  0.4681 -0.2574
 7146SOL     OW28355   3.494   5.930   3.714  0.0678 -0.4625  0.1293
 7146SOL    HW228356   3.437   5.853   3.715  0.7283 -1.1313 -2.9030
 7146SOL    HW328357   3.545   5.920   3.634  2.3253  1.6510  1.1804
 7146SOL    MW428358   3.493   5.918   3.704 -0.3651  0.0117 -1.4396
 7147SOL     OW28359   5.879   3.347   1.028 -0.2392  0.2832 -0.2358
 7147SOL    HW228360   5.820   3.289   0.979  1.0465 -2.3265  1.1267
 7147SOL    HW328361   5.965   3.308   1.019  0.0419 -0.7495  4.3992
 7147SOL    MW428362   5.882   3.334   1.021  0.0561  0.3843 -0.0097
 7148SOL     OW28363   6.104   4.752   4.666 -0.1460 -0.3428 -0.3798
 7148SOL    HW228364   6.056   4.834   4.676  0.6444  0.1268 -0.3472
 7148SOL    HW328365   6.196   4.776   4.680  0.2820 -0.9204 -1.9791
 7148SOL    MW428366   6.110   4.766   4.669 -0.7756 -0.3960  0.0615
 7149SOL     OW28367   0.278   4.584   5.384  0.1055  0.9301  0.5814
 7149SOL    HW228368   0.352   4.601   5.442  0.3035 -0.8118  0.8989
 7149SOL    HW328369   0.203   4.621   5.429  0.4339  0.6111  1.4061
 7149SOL    MW428370   0.278   4.591   5.397 -0.0476  0.3499  0.5696
 7150SOL     OW28371   0.908   3.188   4.056  0.1681  0.3920 -0.1340
 7150SOL    HW228372   0.815   3.177   4.077 -0.2164 -0.9747 -2.2579
 7150SOL    HW328373   0.952   3.118   4.104  0.1275  0.9184  0.7118
 7150SOL    MW428374   0.902   3.178   4.065 -0.1971  0.0732  1.2365
 7151SOL     OW28375   3.177   1.093   4.312 -0.6369 -0.0023 -0.3718
 7151SOL    HW228376   3.092   1.074   4.350 -0.9866 -0.7973 -1.5046
 7151SOL    HW328377   3.172   1.060   4.222  0.9220 -0.2575 -0.4071
 7151SOL    MW428378   3.165   1.086   4.305 -0.3093 -0.1104  0.2343
 7152SOL     OW28379   2.601   6.413   3.029 -0.3231 -0.3205  0.2419
 7152SOL    HW228380   2.697   6.410   3.027 -0.3081 -0.6521  0.9666
 7152SOL    HW328381   2.578   6.376   3.115 -1.1750 -1.9371 -0.6275
 7152SOL    MW428382   2.611   6.408   3.040 -0.3479 -0.3627 -0.1636
 7153SOL     OW28383   4.301   4.053   6.394 -0.2394  0.1638  0.0900
 7153SOL    HW228384   4.215   4.080   6.425  0.5377  0.8800  1.7540
 7153SOL    HW328385   4.318   3.971   6.439 -0.8516 -1.0602 -1.7882
 7153SOL    MW428386   4.292   4.046   6.404  0.3727 -0.3681  0.2895
 7154SOL     OW28387   6.334   0.113   3.733 -0.1723 -0.1946  0.4961
 7154SOL    HW228388   6.275   0.049   3.772  0.1429  0.1382  1.5548
 7154SOL    HW328389   6.307   0.197   3.772 -0.5879  0.3313 -0.8663
 7154SOL    MW428390   6.322   0.116   3.743 -0.4439  0.5885 -1.0406
 7155SOL     OW28391   3.379   2.031   3.323  0.1580  0.0886 -0.2710
 7155SOL    HW228392   3.287   2.004   3.319  0.1820 -0.4320  1.7620
 7155SOL    HW328393   3.428   1.949   3.329  0.6831  0.4016 -0.1806
 7155SOL    MW428394   3.373   2.017   3.323  0.3398  0.2993  0.5319
 7156SOL     OW28395   5.406   3.632   6.054 -0.1951  0.1289 -0.3545
 7156SOL    HW228396   5.422   3.670   6.141 -0.4641 -1.7560  0.5573
 7156SOL    HW328397   5.492   3.637   6.011 -0.0737  1.1524 -0.0244
 7156SOL    MW428398   5.420   3.638   6.060 -0.1152  0.5076  0.1426
 7157SOL     OW28399   4.320   1.049   2.380 -0.4522 -0.4779  0.5214
 7157SOL    HW228400   4.305   1.010   2.466  1.0662  1.5407  1.7920
 7157SOL    HW328401   4.350   0.976   2.325 -1.2304 -1.7563  1.7378
 7157SOL    MW428402   4.322   1.034   2.384 -0.0618 -0.0297  0.2736
 7158SOL     OW28403   0.701   5.173   5.586  0.4333  0.6448  0.0416
 7158SOL    HW228404   0.714   5.210   5.674  0.0115  0.8460  0.0200
 7158SOL    HW328405   0.658   5.088   5.602  1.4006  0.1526  0.0908
 7158SOL    MW428406   0.697   5.166   5.600  0.1275 -0.6830 -0.0127
 7159SOL     OW28407   4.947   4.053   0.344  0.8940 -0.3775  0.2618
 7159SOL    HW228408   4.995   4.071   0.262 -2.5813 -1.9644 -2.3760
 7159SOL    HW328409   4.915   4.139   0.372 -0.9083 -0.1071 -2.2486
 7159SOL    MW428410   4.949   4.067   0.337 -0.2948  0.2445  0.4492
 7160SOL     OW28411   3.505   1.669   4.870 -0.4274 -0.1401 -0.5066
 7160SOL    HW228412   3.567   1.612   4.915  0.5955  2.2159  1.2847
 7160SOL    HW328413   3.419   1.634   4.894  0.1298 -1.9391 -0.9428
 7160SOL    MW428414   3.502   1.657   4.879  0.4177  0.1073  0.1147
 7161SOL     OW28415   1.376   1.240   5.877 -0.0952 -0.4881 -0.2900
 7161SOL    HW228416   1.457   1.239   5.826  0.9711 -0.7486  1.3308
 7161SOL    HW328417   1.397   1.188   5.955 -1.4345  0.4593  0.7338
 7161SOL    MW428418   1.390   1.233   5.880  0.0848  0.4500  0.0028
 7162SOL     OW28419   2.992   5.037   5.973 -0.5932  0.3781  0.3834
 7162SOL    HW228420   3.078   5.028   5.931 -0.4507  3.5053 -0.2622
 7162SOL    HW328421   2.960   4.948   5.981  1.7863 -0.7545 -1.3214
 7162SOL    MW428422   2.999   5.024   5.968  0.1800 -0.1969 -0.3007
 7163SOL     OW28423   3.521   1.660   6.040 -0.2105  0.3262  0.5923
 7163SOL    HW228424   3.439   1.680   5.996 -0.3852 -1.8511 -0.2338
 7163SOL    HW328425   3.582   1.641   5.969  0.8709  1.3692  1.2163
 7163SOL    MW428426   3.518   1.660   6.025 -0.1262 -0.3354  0.4638
 7164SOL     OW28427   3.406   6.089   3.282 -0.1568  0.1232  0.4457
 7164SOL    HW228428   3.383   6.180   3.266  0.9706  0.4018  0.2786
 7164SOL    HW328429   3.501   6.087   3.271 -0.2483 -1.2146 -0.2099
 7164SOL    MW428430   3.416   6.101   3.279  0.4207 -0.3709 -0.1342
 7165SOL     OW28431   2.409   5.985   3.801  0.1172  0.0389 -0.3402
 7165SOL    HW228432   2.470   5.915   3.824  0.0270 -0.0198 -0.2784
 7165SOL    HW328433   2.371   5.958   3.718  1.0496  0.6479 -0.9813
 7165SOL    MW428434   2.412   5.973   3.793 -0.0754 -0.1936 -0.0514
 7166SOL     OW28435   0.962   4.798   2.895  0.7469  0.8401  0.5872
 7166SOL    HW228436   1.032   4.734   2.902  1.0277  0.9459 -1.0024
 7166SOL    HW328437   0.979   4.845   2.813 -0.2224  2.0193  1.0191
 7166SOL    MW428438   0.973   4.796   2.885 -0.0964 -0.0934 -0.1346
 7167SOL     OW28439   3.656   2.602   5.584 -0.1260 -0.1015 -0.2072
 7167SOL    HW228440   3.657   2.507   5.593 -0.0596 -0.1052 -0.2541
 7167SOL    HW328441   3.682   2.634   5.671  0.8045 -0.1446 -0.4576
 7167SOL    MW428442   3.660   2.594   5.597 -0.3535  0.4946  0.4110
 7168SOL     OW28443   6.028   3.917   5.519 -0.6006 -0.3343 -0.1573
 7168SOL    HW228444   6.072   3.993   5.481 -0.3137 -0.4380 -0.0353
 7168SOL    HW328445   6.043   3.846   5.456 -0.6754 -0.3481 -0.1606
 7168SOL    MW428446   6.036   3.917   5.505  0.8819  0.2245  0.2531
 7169SOL     OW28447   0.922   4.677   1.781  0.3684 -0.0707 -0.2130
 7169SOL    HW228448   0.874   4.706   1.859  1.9781 -0.9024  1.1503
 7169SOL    HW328449   0.903   4.744   1.716 -0.2550  1.1964  1.1932
 7169SOL    MW428450   0.914   4.690   1.783 -0.0076 -0.3107  0.2036
 7170SOL     OW28451   2.576   3.838   1.530  0.2190 -0.2964 -0.3063
 7170SOL    HW228452   2.502   3.802   1.579  1.7499 -3.3523 -0.0007
 7170SOL    HW328453   2.629   3.882   1.597 -0.0700 -0.2643 -0.0933
 7170SOL    MW428454   2.573   3.839   1.546  0.3177  0.7230  0.5400
 7171SOL     OW28455   0.899   1.593   4.162 -0.0486 -0.2129 -0.1739
 7171SOL    HW228456   0.949   1.546   4.229 -1.3478 -1.2156  0.1295
 7171SOL    HW328457   0.923   1.685   4.176 -0.2592 -0.3951  1.6648
 7171SOL    MW428458   0.909   1.599   4.173  0.0851 -0.1710 -0.0290
 7172SOL     OW28459   5.185   5.598   3.313  0.7931 -0.4288 -0.3295
 7172SOL    HW228460   5.272   5.585   3.276 -0.1738  0.2276 -3.0882
 7172SOL    HW328461   5.164   5.689   3.293  0.3603  0.1769  2.4853
 7172SOL    MW428462   5.194   5.608   3.306  0.6782  0.2260  0.4917
 7173SOL     OW28463   3.489   1.220   4.920 -0.1039  0.1305  0.2369
 7173SOL    HW228464   3.442   1.264   4.849 -0.8310 -1.0670 -0.0591
 7173SOL    HW328465   3.579   1.212   4.888 -0.6938 -1.6017 -1.1976
 7173SOL    MW428466   3.494   1.225   4.906 -0.0071 -0.4640  0.1291
 7174SOL     OW28467   5.474   0.518   5.419 -0.0926 -0.8595 -0.1949
 7174SOL    HW228468   5.491   0.427   5.397  0.9375 -1.0655  1.2568
 7174SOL    HW328469   5.522   0.532   5.501  1.3064  1.4761 -1.2958
 7174SOL    MW428470   5.483   0.508   5.427  0.7953 -0.4381 -0.6454
 7175SOL     OW28471   1.590   4.984   1.755  0.2340  0.4562  0.0487
 7175SOL    HW228472   1.574   5.070   1.795  0.1063  0.1697  0.6232
 7175SOL    HW328473   1.603   5.003   1.662 -0.0565  1.0706  0.1277
 7175SOL    MW428474   1.589   4.998   1.748 -0.3841 -0.3152 -0.4653
 7176SOL     OW28475   4.516   1.066   5.026  0.3765  0.0787 -0.7819
 7176SOL    HW228476   4.469   1.041   5.106  1.0849 -1.7138 -0.8730
 7176SOL    HW328477   4.592   1.115   5.057 -0.1080  0.6334 -0.4602
 7176SOL    MW428478   4.520   1.069   5.041  0.2527 -0.0051 -0.1698
 7177SOL     OW28479   2.138   4.422   4.765 -0.2802 -0.3646  0.5453
 7177SOL    HW228480   2.200   4.349   4.756 -0.9769 -0.9080  0.0874
 7177SOL    HW328481   2.194   4.497   4.787  0.4305 -1.0588  1.2142
 7177SOL    MW428482   2.154   4.422   4.767  0.5044 -0.5593 -0.2438
 7178SOL     OW28483   1.151   5.850   5.385 -0.0378 -0.2473 -0.4648
 7178SOL    HW228484   1.173   5.762   5.357  0.9794  0.2092 -1.1606
 7178SOL    HW328485   1.080   5.839   5.448  1.6561 -1.7410  1.2864
 7178SOL    MW428486   1.145   5.837   5.389  0.4047  0.2482  0.2687
 7179SOL     OW28487   5.754   6.146   4.958  0.4318 -0.3005 -0.3960
 7179SOL    HW228488   5.725   6.207   4.890 -0.4750 -1.0749 -0.7107
 7179SOL    HW328489   5.677   6.093   4.978  0.5636  0.1634  1.5315
 7179SOL    MW428490   5.740   6.147   4.952 -0.5731 -0.3296  0.0683
 7180SOL     OW28491   5.886   0.567   1.239 -0.1192  0.6479 -0.3140
 7180SOL    HW228492   5.899   0.661   1.228 -1.2718  0.8935  0.3247
 7180SOL    HW328493   5.961   0.539   1.292 -0.3266  1.4071  0.3972
 7180SOL    MW428494   5.898   0.576   1.245 -0.6102  0.1270 -0.1185
 7181SOL     OW28495   3.981   2.703   2.097  0.6389 -0.4235 -1.0833
 7181SOL    HW228496   3.983   2.650   2.177  2.2368 -0.6505 -1.2290
 7181SOL    HW328497   3.905   2.760   2.108  0.1426 -1.2648  0.0592
 7181SOL    MW428498   3.971   2.704   2.109  0.3825 -0.1698  0.1762
 7182SOL     OW28499   2.636   0.431   1.728  0.3143  0.4682  0.2753
 7182SOL    HW228500   2.592   0.356   1.688  0.1055  0.7493 -0.0297
 7182SOL    HW328501   2.566   0.480   1.771  0.4029  0.6499  0.2154
 7182SOL    MW428502   2.621   0.428   1.728 -1.0782 -0.3629 -0.1433
 7183SOL     OW28503   2.363   0.804   2.658 -0.2231  0.4215  0.2600
 7183SOL    HW228504   2.431   0.737   2.661  2.0121  2.6041  0.8291
 7183SOL    HW328505   2.387   0.867   2.725 -2.4681  1.6538  0.0128
 7183SOL    MW428506   2.375   0.803   2.667 -0.0056  0.6986 -0.2429
 7184SOL     OW28507   5.587   4.787   0.993  0.2989 -0.0925  0.2425
 7184SOL    HW228508   5.514   4.731   0.968 -0.1484  0.0379  1.1942
 7184SOL    HW328509   5.665   4.740   0.965 -0.1563  0.1318 -1.5293
 7184SOL    MW428510   5.588   4.774   0.986  0.7160 -0.3684  0.1035
 7185SOL     OW28511   4.855   5.548   3.508 -0.1924 -0.0785 -0.1098
 7185SOL    HW228512   4.764   5.575   3.495  0.3834  0.8099 -2.7629
 7185SOL    HW328513   4.897   5.624   3.548 -0.6782 -0.6906  1.6585
 7185SOL    MW428514   4.848   5.561   3.512  0.1374 -0.2725  0.1494
 7186SOL     OW28515   5.926   3.795   2.847 -0.1239 -0.1877 -1.1068
 7186SOL    HW228516   5.911   3.764   2.758 -1.6548 -0.0584 -0.9308
 7186SOL    HW328517   5.863   3.745   2.900 -0.0482  0.5640 -0.2830
 7186SOL    MW428518   5.915   3.784   2.843 -0.0625  0.0778 -0.4492
 7187SOL     OW28519   4.008   4.513   0.916  0.5493 -0.0848  0.4472
 7187SOL    HW228520   4.086   4.532   0.968 -0.0953  0.6448  1.1778
 7187SOL    HW328521   3.992   4.592   0.865  0.9055 -0.6290 -0.5309
 7187SOL    MW428522   4.016   4.526   0.916 -0.0115 -0.0540  0.3192
 7188SOL     OW28523   1.213   2.447   0.013  0.4827 -0.0380  0.0371
 7188SOL    HW228524   1.132   2.465   0.061  0.8977 -0.1780  0.8151
 7188SOL    HW328525   1.281   2.446   0.081  0.9437 -1.2630 -0.4166
 7188SOL    MW428526   1.211   2.449   0.029 -0.4867  0.7758  0.4293
 7189SOL     OW28527   4.001   0.459   5.559  0.3033 -0.0964  0.0163
 7189SOL    HW228528   3.922   0.406   5.566 -0.6117  0.9821 -1.3376
 7189SOL    HW328529   4.025   0.454   5.466  0.3060  1.6283 -0.1154
 7189SOL    MW428530   3.994   0.452   5.547  0.3544 -0.2067 -0.4620
 7190SOL     OW28531   4.680   2.954   5.689 -0.1014  0.9328 -0.1152
 7190SOL    HW228532   4.761   3.003   5.701  1.3195 -1.1984 -0.4477
 7190SOL    HW328533   4.686   2.919   5.600 -0.4847 -0.7485  0.4866
 7190SOL    MW428534   4.691   2.956   5.679 -0.4667  0.4209  0.1856
 7191SOL     OW28535   4.350   2.577   4.508  0.1959 -0.9435  0.2986
 7191SOL    HW228536   4.338   2.483   4.516 -1.6369 -0.7185  0.7877
 7191SOL    HW328537   4.292   2.602   4.436 -1.1463  0.0613  1.6413
 7191SOL    MW428538   4.341   2.568   4.500 -0.4918 -0.2494 -0.5643
 7192SOL     OW28539   4.411   4.308   0.927  0.4582  0.4966  0.6874
 7192SOL    HW228540   4.341   4.301   0.861 -0.6283  0.6948  1.7936
 7192SOL    HW328541   4.473   4.370   0.889  1.0460 -1.1000 -1.1698
 7192SOL    MW428542   4.410   4.315   0.913 -0.1045  0.3588  0.0409
 7193SOL     OW28543   6.235   0.674   1.195 -0.4860  0.0328  0.6381
 7193SOL    HW228544   6.294   0.748   1.208  0.7405 -0.6588 -0.8038
 7193SOL    HW328545   6.150   0.714   1.177  0.6546  1.2608 -2.7805
 7193SOL    MW428546   6.231   0.689   1.195 -0.3597 -0.0337 -0.4278
 7194SOL     OW28547   5.031   3.642   4.323 -0.1460 -0.7374 -0.1326
 7194SOL    HW228548   4.948   3.662   4.366  0.2263  0.1172  0.2090
 7194SOL    HW328549   5.059   3.725   4.284 -0.1700 -1.3513 -1.5297
 7194SOL    MW428550   5.024   3.655   4.324 -0.2094  0.4197 -0.1263
 7195SOL     OW28551   6.309   5.873   3.594 -0.4413  0.1989  0.8264
 7195SOL    HW228552   6.342   5.866   3.504 -3.4770  1.0180 -0.4856
 7195SOL    HW328553   6.344   5.797   3.639  2.1926  0.4105 -0.6478
 7195SOL    MW428554   6.318   5.862   3.588  0.2949 -0.2064 -1.0500
 7196SOL     OW28555   3.697   2.826   0.926 -0.3044 -0.0434  0.1810
 7196SOL    HW228556   3.696   2.892   0.996 -2.0377  0.1618  0.0143
 7196SOL    HW328557   3.655   2.749   0.965 -2.9281  0.6320 -1.0429
 7196SOL    MW428558   3.691   2.825   0.941 -0.5041  0.2666  0.3073
 7197SOL     OW28559   2.790   5.765   4.838  0.5826 -0.0290 -0.5071
 7197SOL    HW228560   2.732   5.836   4.811 -0.5405 -0.3624  0.8583
 7197SOL    HW328561   2.731   5.691   4.854  1.5459 -0.7971 -0.3991
 7197SOL    MW428562   2.774   5.765   4.837 -0.1077 -0.2016 -0.4128
 7198SOL     OW28563   0.140   5.652   5.209  0.4229 -0.0730 -0.1725
 7198SOL    HW228564   0.087   5.578   5.236 -0.0464 -0.3545 -1.7792
 7198SOL    HW328565   0.130   5.656   5.114  3.5628 -0.3614 -0.6193
 7198SOL    MW428566   0.132   5.643   5.200 -0.0313  0.1225 -0.3410
 7199SOL     OW28567   5.632   0.882   2.690 -0.1098  0.2086 -0.1492
 7199SOL    HW228568   5.577   0.805   2.676 -0.7823  0.6578 -0.0293
 7199SOL    HW328569   5.687   0.887   2.612  0.5912 -0.9155  0.2567
 7199SOL    MW428570   5.632   0.873   2.678  1.0275 -0.6831 -0.2150
 7200SOL     OW28571   5.017   6.199   1.217 -0.2677  0.2547 -0.5025
 7200SOL    HW228572   4.949   6.211   1.152 -0.5287  2.1938  0.0776
 7200SOL    HW328573   4.970   6.167   1.295 -0.3675  0.5427 -0.4420
 7200SOL    MW428574   5.002   6.196   1.219 -0.2513  0.6240  0.4768
 7201SOL     OW28575   2.822   3.723   0.211 -0.5118  0.1560  0.4234
 7201SOL    HW228576   2.812   3.817   0.224  0.5749  0.2050  1.0188
 7201SOL    HW328577   2.758   3.701   0.143  0.4296  1.6239 -1.0017
 7201SOL    MW428578   2.812   3.732   0.204 -0.0045 -0.1281  0.3074
 7202SOL     OW28579   3.158   0.014   0.451  0.1736 -0.4249  0.6165
 7202SOL    HW228580   3.199   0.096   0.479  1.0494 -0.4190 -0.5978
 7202SOL    HW328581   3.231  -0.040   0.420 -0.6585 -0.5571 -1.2807
 7202SOL    MW428582   3.173   0.017   0.450  0.5983 -0.3479  0.5098
 7203SOL     OW28583   3.992   0.112   0.010  0.3257  0.6429  0.2468
 7203SOL    HW228584   3.938   0.104  -0.069  1.1589 -0.3957 -0.2528
 7203SOL    HW328585   4.056   0.041   0.002  0.2125  0.2970  2.0368
 7203SOL    MW428586   3.994   0.101  -0.002 -0.4016 -0.3687 -0.1811
 7204SOL     OW28587   1.819   0.882   6.201 -0.5066 -0.4538 -0.2143
 7204SOL    HW228588   1.801   0.932   6.121 -0.2850  1.4696  0.8730
 7204SOL    HW328589   1.742   0.895   6.256  0.3199  0.2932  0.8269
 7204SOL    MW428590   1.807   0.890   6.198  0.2601 -0.5220 -0.0629
 7205SOL     OW28591   4.379   3.299   4.116 -0.1337  0.1980 -0.3120
 7205SOL    HW228592   4.397   3.390   4.092  0.4376 -0.2814 -1.7933
 7205SOL    HW328593   4.344   3.260   4.036  2.6370 -1.6986 -0.7347
 7205SOL    MW428594   4.377   3.306   4.102 -0.0554  0.2857 -0.0017
 7206SOL     OW28595   1.489   3.693   1.280  0.3777 -0.4314 -0.3450
 7206SOL    HW228596   1.434   3.759   1.322  0.5831  0.6841 -1.7271
 7206SOL    HW328597   1.442   3.611   1.292  0.6587 -0.2627  2.3943
 7206SOL    MW428598   1.475   3.691   1.287  0.0605  0.1684 -0.0849
 7207SOL     OW28599   5.677   2.727   4.520  0.3807 -0.3074 -0.1176
 7207SOL    HW228600   5.711   2.810   4.487  0.1186 -1.2909 -3.1538
 7207SOL    HW328601   5.593   2.750   4.560  1.6875  1.2592  1.9285
 7207SOL    MW428602   5.670   2.741   4.521 -0.6992 -0.4315  0.0495
 7208SOL     OW28603   1.775   3.839   5.457 -0.2505 -0.0629 -0.1637
 7208SOL    HW228604   1.799   3.923   5.495 -0.1382 -0.1058 -0.1388
 7208SOL    HW328605   1.742   3.788   5.531 -1.9814  0.5523 -0.4585
 7208SOL    MW428606   1.774   3.843   5.472  0.1896 -0.7513  0.0055
 7209SOL     OW28607   4.486   3.803   4.364 -0.3672 -0.2504  0.3421
 7209SOL    HW228608   4.530   3.868   4.419 -2.2210  1.4813 -0.0920
 7209SOL    HW328609   4.433   3.752   4.425  0.3836 -0.7836  0.5680
 7209SOL    MW428610   4.485   3.805   4.379 -0.0151 -0.3312  0.0220
 7210SOL     OW28611   4.113   2.300   5.520 -0.0452 -0.0601 -0.2030
 7210SOL    HW228612   4.044   2.366   5.505  1.0295  0.9563 -0.8536
 7210SOL    HW328613   4.186   2.350   5.555  1.0451 -0.7925 -1.3585
 7210SOL    MW428614   4.113   2.316   5.522 -0.3468  0.5372 -0.1896
 7211SOL     OW28615   0.500   1.925   5.660  0.2677  0.6097  0.0333
 7211SOL    HW228616   0.515   1.843   5.708 -1.5793 -0.2861 -0.8042
 7211SOL    HW328617   0.497   1.992   5.728  1.0361 -0.1243  0.8236
 7211SOL    MW428618   0.501   1.923   5.675  0.6735  0.1697 -0.6718
 7212SOL     OW28619   0.037   5.312   4.128 -0.1056 -0.1530 -0.2936
 7212SOL    HW228620  -0.056   5.329   4.111  0.0047 -1.3143 -2.3854
 7212SOL    HW328621   0.055   5.229   4.083  2.7442  1.6766 -2.9222
 7212SOL    MW428622   0.027   5.303   4.120 -0.3330 -0.1897  0.2763
 7213SOL     OW28623   0.570   2.814   2.238  0.5971  0.3994  0.0892
 7213SOL    HW228624   0.569   2.720   2.222 -0.6961  0.0823  1.7563
 7213SOL    HW328625   0.663   2.836   2.246  0.9293 -0.6382 -0.7062
 7213SOL    MW428626   0.582   2.805   2.237 -0.4000 -0.0265 -0.0386
 7214SOL     OW28627   0.578   5.495   2.206 -0.4573 -0.2986  0.1227
 7214SOL    HW228628   0.589   5.456   2.292  0.7614  0.4660  0.3269
 7214SOL    HW328629   0.493   5.463   2.176 -0.4532 -1.3541  1.1858
 7214SOL    MW428630   0.568   5.486   2.213  0.1044 -0.7773  0.1086
 7215SOL     OW28631   0.869   0.075   5.392 -0.5430  0.0705 -0.5474
 7215SOL    HW228632   0.879  -0.019   5.378  0.3129  0.2498 -1.2833
 7215SOL    HW328633   0.879   0.113   5.305 -2.0444  0.7788 -0.4444
 7215SOL    MW428634   0.872   0.068   5.379 -0.3429 -0.3691 -0.0764
 7216SOL     OW28635   2.488   5.169   3.592  0.3750  0.2372  0.0597
 7216SOL    HW228636   2.451   5.198   3.675  1.0820 -2.9776  1.6457
 7216SOL    HW328637   2.411   5.144   3.540 -0.0916  2.5679 -0.4939
 7216SOL    MW428638   2.473   5.170   3.596  0.2663 -0.4663 -0.1907
 7217SOL     OW28639   2.592   6.030   0.439 -0.0374 -0.2391  0.1776
 7217SOL    HW228640   2.628   5.948   0.404  0.2880  0.0102 -0.0732
 7217SOL    HW328641   2.641   6.045   0.519  0.8935  0.4457 -0.5009
 7217SOL    MW428642   2.603   6.021   0.445  0.0855 -0.0716 -0.0894
 7218SOL     OW28643   0.978   5.949   3.531 -0.0807 -0.2197  0.0634
 7218SOL    HW228644   1.026   6.024   3.496 -1.8691  0.6617 -0.6337
 7218SOL    HW328645   1.030   5.921   3.607  1.4649  0.7057 -0.6038
 7218SOL    MW428646   0.991   5.955   3.537 -0.1359  0.3441 -0.2442
 7219SOL     OW28647   1.821   6.312   6.004 -0.3342  0.3061 -0.3618
 7219SOL    HW228648   1.783   6.287   6.088 -0.1936 -0.9573 -0.6493
 7219SOL    HW328649   1.810   6.406   6.000 -3.2242  0.0578 -0.3179
 7219SOL    MW428650   1.815   6.321   6.015 -0.1100 -0.3768  0.6015
 7220SOL     OW28651   2.701   4.813   1.698  0.3013 -0.5563 -0.2888
 7220SOL    HW228652   2.680   4.726   1.664  1.6583 -1.2110  0.4673
 7220SOL    HW328653   2.786   4.802   1.742 -0.2352  0.7787  1.1950
 7220SOL    MW428654   2.709   4.800   1.699  0.2093  0.2678 -0.0048
 7221SOL     OW28655   5.335   5.772   1.011  0.5886  0.2831 -0.2806
 7221SOL    HW228656   5.296   5.789   1.096  1.5530  0.9696  0.0350
 7221SOL    HW328657   5.276   5.815   0.948 -0.7761 -1.2305 -0.0963
 7221SOL    MW428658   5.322   5.780   1.014  0.2261  0.2359  0.1318
 7222SOL     OW28659   4.774   1.350   2.465  0.1070  0.5439 -0.3889
 7222SOL    HW228660   4.696   1.295   2.473 -0.3808  1.3724  0.8152
 7222SOL    HW328661   4.846   1.294   2.495 -0.2330  0.2290 -0.1564
 7222SOL    MW428662   4.773   1.335   2.470  0.0436 -0.9520  0.2616
 7223SOL     OW28663   2.080   1.774   2.279  1.0403  0.0515  0.1562
 7223SOL    HW228664   2.170   1.742   2.289  0.6973 -0.8717  0.4786
 7223SOL    HW328665   2.060   1.817   2.362  1.0661 -0.0592  0.2198
 7223SOL    MW428666   2.090   1.775   2.291 -0.1267 -0.1097  0.1140
 7224SOL     OW28667   0.227   4.745   1.880  0.4864 -0.4361  0.1999
 7224SOL    HW228668   0.158   4.681   1.863 -0.9991  0.8662  1.0728
 7224SOL    HW328669   0.285   4.702   1.943 -0.2340 -1.1020  0.4210
 7224SOL    MW428670   0.226   4.731   1.886  0.5414  0.1724  0.3275
 7225SOL     OW28671   2.965   4.301   1.188 -0.2392 -0.1191 -0.7135
 7225SOL    HW228672   2.957   4.396   1.197  1.7335  0.0412 -0.3216
 7225SOL    HW328673   2.890   4.267   1.236 -0.1194  1.2132  0.4985
 7225SOL    MW428674   2.954   4.309   1.196  0.1477 -0.0899 -0.1096
 7226SOL     OW28675   3.962   4.525   2.135 -0.0831 -0.4453  0.4386
 7226SOL    HW228676   4.034   4.462   2.126  0.4691  0.2700 -0.3640
 7226SOL    HW328677   3.985   4.576   2.212  1.5147  1.2730 -1.0742
 7226SOL    MW428678   3.974   4.523   2.144 -0.1107  0.2985  0.2402
 7227SOL     OW28679   4.213   4.898   3.711  0.1549 -0.2665  0.6444
 7227SOL    HW228680   4.163   4.833   3.760  0.3287 -0.5232  0.4777
 7227SOL    HW328681   4.304   4.881   3.733  0.1937 -0.0175  0.6767
 7227SOL    MW428682   4.218   4.887   3.721 -0.4202  0.0153  0.0580
 7228SOL     OW28683   0.618   4.946   4.735  0.9772  0.2319  0.0180
 7228SOL    HW228684   0.552   4.887   4.771  0.8106 -0.3899 -1.2664
 7228SOL    HW328685   0.585   5.034   4.756 -1.1159 -0.0029 -1.9375
 7228SOL    MW428686   0.605   4.950   4.743 -0.2066 -0.4207  0.2987
 7229SOL     OW28687   5.261   0.070   1.943 -0.0734 -0.3969 -0.5309
 7229SOL    HW228688   5.345   0.106   1.969  0.2783 -0.2469 -1.8357
 7229SOL    HW328689   5.217   0.140   1.896 -1.8489  0.2612  1.8663
 7229SOL    MW428690   5.266   0.084   1.940 -0.6588 -0.6648  0.3843
 7230SOL     OW28691   1.239   2.414   4.815 -0.2057  0.1945 -0.3150
 7230SOL    HW228692   1.235   2.330   4.860 -0.7940  0.4668  0.1600
 7230SOL    HW328693   1.271   2.393   4.727  0.2099 -0.4445 -0.0178
 7230SOL    MW428694   1.243   2.401   4.809 -0.1249 -0.0642  1.0596
 7231SOL     OW28695   5.579   5.081   5.927  0.2263  0.7036 -0.0030
 7231SOL    HW228696   5.604   4.994   5.900  0.7179  0.8480 -0.0165
 7231SOL    HW328697   5.622   5.140   5.865  0.7762  1.0000  0.6404
 7231SOL    MW428698   5.588   5.078   5.915  0.5472  0.0696 -0.0966
 7232SOL     OW28699   0.476   3.549   4.870 -1.0162  0.2506 -0.8622
 7232SOL    HW228700   0.527   3.524   4.947 -1.0624 -2.7144 -1.6721
 7232SOL    HW328701   0.385   3.547   4.899 -0.9784  0.0508 -0.7576
 7232SOL    MW428702   0.471   3.546   4.884 -0.3559 -0.2279 -0.1262
 7233SOL     OW28703   2.486   4.289   0.427  0.6985 -0.4490  0.1600
 7233SOL    HW228704   2.450   4.286   0.515  0.7448 -0.0222  0.1978
 7233SOL    HW328705   2.447   4.214   0.382  1.2175 -1.0774  0.7416
 7233SOL    MW428706   2.476   4.279   0.433 -0.0343 -0.0201 -0.2051
 7234SOL     OW28707   2.770   1.252   0.307  0.1335 -0.3259  0.6219
 7234SOL    HW228708   2.857   1.243   0.345  0.4019  1.6592  0.6012
 7234SOL    HW328709   2.726   1.317   0.362 -0.0537  1.3857 -1.4166
 7234SOL    MW428710   2.775   1.259   0.319  0.6739 -0.2412  0.0706
 7235SOL     OW28711   1.315   0.099   5.450  0.2839 -0.1444 -0.5469
 7235SOL    HW228712   1.367   0.138   5.521 -0.1466  0.1062 -0.3660
 7235SOL    HW328713   1.312   0.006   5.471  1.3427 -0.2970 -0.9922
 7235SOL    MW428714   1.321   0.092   5.463 -0.0630 -0.2883  0.1669
 7236SOL     OW28715   1.863   1.201   1.938 -0.0569 -0.1394 -0.6097
 7236SOL    HW228716   1.958   1.197   1.946 -0.1720  0.4148  1.7314
 7236SOL    HW328717   1.848   1.240   1.852  1.8713  1.4075 -0.3207
 7236SOL    MW428718   1.873   1.205   1.928  0.3520  0.2659  0.1826
 7237SOL     OW28719   2.133   4.554   3.870 -0.1173  0.0770 -0.1692
 7237SOL    HW228720   2.155   4.498   3.796 -0.0437 -0.1150 -0.0002
 7237SOL    HW328721   2.145   4.499   3.947 -0.3726  0.2193 -0.0241
 7237SOL    MW428722   2.137   4.539   3.870 -0.0940 -0.0527 -0.0766
 7238SOL     OW28723   1.042   5.864   0.494  0.4528 -0.5694  0.3116
 7238SOL    HW228724   1.011   5.794   0.437  0.3553 -0.5080  0.2891
 7238SOL    HW328725   0.975   5.872   0.562 -0.3770  0.6077 -0.5964
 7238SOL    MW428726   1.029   5.856   0.496 -0.1178  0.0085  0.2912
 7239SOL     OW28727   4.699   5.897   0.384  0.1498  0.4803 -0.1982
 7239SOL    HW228728   4.648   5.816   0.393 -0.5462  1.0394  1.2861
 7239SOL    HW328729   4.633   5.965   0.371  0.6669  0.9592 -0.3638
 7239SOL    MW428730   4.683   5.895   0.383  0.1493 -0.2356 -0.1789
 7240SOL     OW28731   2.957   5.377   5.861  0.2403  0.3721  0.3479
 7240SOL    HW228732   2.894   5.440   5.829 -0.6779 -0.6493  0.0855
 7240SOL    HW328733   2.931   5.294   5.821  1.7740 -0.0657  0.1942
 7240SOL    MW428734   2.946   5.374   5.852  0.0079  0.0989 -0.4828
 7241SOL     OW28735   5.010   4.623   4.894 -0.3641  0.1531 -0.5527
 7241SOL    HW228736   5.055   4.708   4.891 -0.1443  0.0580 -0.0543
 7241SOL    HW328737   5.048   4.579   4.970 -1.5753  0.2124  0.1111
 7241SOL    MW428738   5.021   4.628   4.903 -0.2279  0.7283 -0.4541
 7242SOL     OW28739   0.675   0.507   2.524 -0.1358 -0.8554 -0.7390
 7242SOL    HW228740   0.584   0.533   2.513  0.4113  1.9829  0.5172
 7242SOL    HW328741   0.724   0.564   2.465  1.0897  0.7634  1.6439
 7242SOL    MW428742   0.670   0.518   2.515  0.4503  0.4512  0.6423
 7243SOL     OW28743   3.881   4.701   3.802 -0.1872  0.0573 -0.2105
 7243SOL    HW228744   3.970   4.672   3.823 -0.1859 -0.8347 -1.3573
 7243SOL    HW328745   3.830   4.681   3.881  0.6346  0.6710  0.4910
 7243SOL    MW428746   3.886   4.694   3.815  0.5530  0.3126 -0.0936
 7244SOL     OW28747   2.602   3.088   1.028 -0.0552  0.1467 -0.0400
 7244SOL    HW228748   2.626   2.997   1.042 -1.8577  0.0933  3.8274
 7244SOL    HW328749   2.575   3.092   0.936  2.9430 -2.3864 -1.2014
 7244SOL    MW428750   2.602   3.077   1.017  0.1003  0.5312 -0.0568
 7245SOL     OW28751   3.272   3.300   4.437  0.2023 -0.0813 -0.2741
 7245SOL    HW228752   3.179   3.276   4.427  0.2642 -0.4758  0.0808
 7245SOL    HW328753   3.313   3.269   4.357  0.1503 -0.5129 -0.1329
 7245SOL    MW428754   3.265   3.293   4.425 -0.5133 -0.3495  0.2642
 7246SOL     OW28755   2.880   3.893   0.706  0.2604  0.3134  0.3987
 7246SOL    HW228756   2.881   3.970   0.649  1.9262 -0.3263 -0.4684
 7246SOL    HW328757   2.800   3.847   0.682  0.1789  0.8315 -0.3673
 7246SOL    MW428758   2.869   3.897   0.695  0.4360 -0.4971  0.0382
 7247SOL     OW28759   0.750   2.825   4.905 -0.1364  0.0732 -0.3444
 7247SOL    HW228760   0.705   2.814   4.988 -0.7625  0.7321 -0.5878
 7247SOL    HW328761   0.683   2.858   4.845  0.7953  1.6874 -0.5636
 7247SOL    MW428762   0.736   2.828   4.908 -0.2888  0.0143  0.1610
 7248SOL     OW28763   3.216   3.807   0.656 -0.1819 -0.1888  0.0974
 7248SOL    HW228764   3.151   3.784   0.590  0.7788 -0.3095 -0.8299
 7248SOL    HW328765   3.301   3.789   0.615  0.4467 -0.2293  1.3455
 7248SOL    MW428766   3.219   3.802   0.642  0.0749 -0.2896  0.5652
 7249SOL     OW28767   4.835   1.947   4.495 -0.2382 -0.6845  0.0580
 7249SOL    HW228768   4.907   2.009   4.482 -0.7680 -0.0840 -0.0337
 7249SOL    HW328769   4.864   1.867   4.450  1.3280 -1.2006  1.8708
 7249SOL    MW428770   4.849   1.945   4.487  0.0385 -0.3477  0.0958
 7250SOL     OW28771   1.217   0.604   3.135 -0.0957  0.2909  0.0356
 7250SOL    HW228772   1.228   0.681   3.079 -0.5030  0.8080  0.6526
 7250SOL    HW328773   1.306   0.570   3.147  0.2514  1.4159  0.7934
 7250SOL    MW428774   1.230   0.610   3.129  0.0743 -0.3485  0.8809
 7251SOL     OW28775   1.104   0.646   5.612  0.4799  0.5314  0.6360
 7251SOL    HW228776   1.057   0.583   5.666  0.3824  1.9865  2.3486
 7251SOL    HW328777   1.114   0.723   5.668  1.5915  1.6345 -0.9791
 7251SOL    MW428778   1.099   0.648   5.626 -0.6464 -0.4521  0.6365
 7252SOL     OW28779   4.150   3.212   4.992  0.2946  0.4200  0.5039
 7252SOL    HW228780   4.124   3.298   4.959  0.6582  1.1120  1.9294
 7252SOL    HW328781   4.192   3.169   4.918 -0.9505  0.9853 -0.5815
 7252SOL    MW428782   4.152   3.218   4.978  0.0452  0.2542  0.0627
 7253SOL     OW28783   4.440   3.299   5.036  0.6518 -0.2188  0.3935
 7253SOL    HW228784   4.355   3.256   5.048  1.0881 -1.2872 -0.2579
 7253SOL    HW328785   4.493   3.235   4.989  1.6231  0.6881  0.2277
 7253SOL    MW428786   4.435   3.285   5.032 -0.6060  0.2036 -0.1941
 7254SOL     OW28787   0.114   1.644   2.415 -0.1911  0.4875  0.3454
 7254SOL    HW228788   0.059   1.632   2.492  0.1184 -2.3919  0.2347
 7254SOL    HW328789   0.058   1.621   2.341  0.1220  1.1677 -0.1184
 7254SOL    MW428790   0.100   1.640   2.416  0.2705 -0.4289  0.8061
 7255SOL     OW28791   4.588   2.184   3.085  0.2436 -0.2948  0.1146
 7255SOL    HW228792   4.593   2.270   3.043  1.7311 -0.4835 -0.1642
 7255SOL    HW328793   4.644   2.128   3.032  0.0607 -1.2046  0.8446
 7255SOL    MW428794   4.596   2.188   3.073 -0.1313  0.3468 -0.1781
 7256SOL     OW28795   3.341   0.423   2.307 -0.1300  0.0701 -0.4551
 7256SOL    HW228796   3.309   0.400   2.220 -0.8273  0.5605 -0.3328
 7256SOL    HW328797   3.262   0.441   2.358  0.3024  0.4552  0.0898
 7256SOL    MW428798   3.326   0.422   2.302 -0.2474 -0.0977  0.4552
 7257SOL     OW28799   3.683   5.443   2.832 -0.2172 -0.1690  0.0742
 7257SOL    HW228800   3.734   5.475   2.758 -0.2730 -1.4719 -0.5525
 7257SOL    HW328801   3.595   5.476   2.817 -0.1497 -0.1446 -0.2648
 7257SOL    MW428802   3.678   5.451   2.821 -0.0725  0.2374  0.3652
 7258SOL     OW28803   2.061   2.204   3.714 -0.0926 -0.1994  0.5318
 7258SOL    HW228804   1.992   2.229   3.653  1.0828 -0.2053 -0.8470
 7258SOL    HW328805   2.019   2.142   3.774 -1.6513  0.9311  0.6684
 7258SOL    MW428806   2.047   2.199   3.714  0.4385  0.1861 -0.4711
 7259SOL     OW28807   5.666   6.038   3.330 -0.1859 -0.1824  0.6016
 7259SOL    HW228808   5.616   6.083   3.262  0.9830 -0.7488 -0.6823
 7259SOL    HW328809   5.714   5.970   3.283 -0.7963 -1.8620  2.2773
 7259SOL    MW428810   5.666   6.035   3.315 -0.0074 -0.0430  0.4144
 7260SOL     OW28811   4.708   5.316   0.449 -0.3247 -0.7928 -0.5318
 7260SOL    HW228812   4.756   5.233   0.448  1.3640 -0.0682  3.2906
 7260SOL    HW328813   4.716   5.347   0.539 -2.3056  2.7669 -1.4083
 7260SOL    MW428814   4.715   5.309   0.461  0.3648 -0.8633  0.2222
 7261SOL     OW28815   6.039   0.402   4.168 -0.6007 -0.2594 -0.3270
 7261SOL    HW228816   5.971   0.469   4.181 -0.5394 -0.2223 -0.1972
 7261SOL    HW328817   6.029   0.376   4.076 -0.2163  0.3848 -0.5623
 7261SOL    MW428818   6.028   0.407   4.158 -0.3172  0.0499 -0.2343
 7262SOL     OW28819   5.597   0.074   0.609 -0.2098  0.5019 -0.2709
 7262SOL    HW228820   5.542   0.039   0.539  1.6607  0.6279 -1.8949
 7262SOL    HW328821   5.600   0.168   0.593  1.4047  0.3610 -0.9565
 7262SOL    MW428822   5.590   0.082   0.598 -0.1759  0.1119  0.3180
 7263SOL     OW28823   1.836   1.317   3.207  0.1820  0.1356 -0.4530
 7263SOL    HW228824   1.872   1.303   3.295 -1.5896  0.7573  0.4233
 7263SOL    HW328825   1.836   1.412   3.196  0.0876  0.0772 -0.9993
 7263SOL    MW428826   1.841   1.327   3.217 -0.0137  0.1993 -0.7437
 7264SOL     OW28827   0.829   4.059   0.738 -0.6797  0.5722 -0.0070
 7264SOL    HW228828   0.898   4.084   0.799 -0.8780  2.6556 -0.5348
 7264SOL    HW328829   0.869   3.994   0.681  0.6595  1.2423  0.1289
 7264SOL    MW428830   0.843   4.054   0.738  0.0184  0.1911  0.2298
 7265SOL     OW28831   1.877   1.588   4.814  0.2761  0.4276  0.7159
 7265SOL    HW228832   1.940   1.536   4.763  1.1208 -1.1133  3.1654
 7265SOL    HW328833   1.806   1.526   4.834  0.0545  0.9493  1.5569
 7265SOL    MW428834   1.876   1.573   4.810 -0.2432  0.2885 -0.3958
 7266SOL     OW28835   3.078   4.283   3.703 -0.2010  0.3556 -0.1032
 7266SOL    HW228836   3.074   4.230   3.783 -1.5628  1.0170  0.2958
 7266SOL    HW328837   3.171   4.302   3.692  0.1343 -0.7179  0.6690
 7266SOL    MW428838   3.089   4.278   3.712  0.1397  0.2496  0.6769
 7267SOL     OW28839   3.546   4.202   1.022 -0.0997 -0.3635  0.3486
 7267SOL    HW228840   3.564   4.166   1.109 -0.7866  0.2010  0.7412
 7267SOL    HW328841   3.488   4.138   0.981  0.7127 -0.9276  0.0679
 7267SOL    MW428842   3.540   4.189   1.028 -0.1495 -0.0056  0.2048
 7268SOL     OW28843   4.870   2.213   3.886 -0.0809 -0.2287  0.2855
 7268SOL    HW228844   4.932   2.193   3.957 -1.2338 -0.7201  1.1909
 7268SOL    HW328845   4.819   2.132   3.876 -3.7439  1.4399  2.8661
 7268SOL    MW428846   4.872   2.199   3.894  0.3291  0.5046 -0.3148
 7269SOL     OW28847   4.713   0.257   3.752 -0.1836  0.2164  0.3244
 7269SOL    HW228848   4.666   0.273   3.834 -0.1128  1.5122  0.1428
 7269SOL    HW328849   4.686   0.330   3.696 -0.2674 -0.6757 -0.8243
 7269SOL    MW428850   4.703   0.269   3.755 -0.3340  0.0681 -0.3090
 7270SOL     OW28851   3.910   1.596   0.118 -0.5452  0.1058  0.1648
 7270SOL    HW228852   3.839   1.627   0.062 -0.1025  0.0237 -0.4514
 7270SOL    HW328853   3.975   1.666   0.116 -0.7932  0.3733  1.0796
 7270SOL    MW428854   3.909   1.609   0.111  0.5395  0.0054 -0.1593
 7271SOL     OW28855   3.665   4.217   5.546 -0.0867  0.5045  0.3125
 7271SOL    HW228856   3.638   4.196   5.635 -3.1890  0.2366 -0.5493
 7271SOL    HW328857   3.658   4.134   5.499  0.0024  0.9433 -0.4856
 7271SOL    MW428858   3.660   4.204   5.552 -0.9217 -0.5789 -0.0562
 7272SOL     OW28859   2.072   1.265   4.859 -0.5068 -0.1785  0.4011
 7272SOL    HW228860   1.981   1.267   4.832 -1.2133 -2.5313  2.3052
 7272SOL    HW328861   2.119   1.226   4.785 -0.8719  1.6851 -0.8608
 7272SOL    MW428862   2.066   1.260   4.846 -0.1717 -0.5417 -0.4362
 7273SOL     OW28863   4.222   5.457   3.618 -0.3677  0.3290  0.5836
 7273SOL    HW228864   4.228   5.488   3.708 -1.3691  2.7301 -0.0929
 7273SOL    HW328865   4.144   5.500   3.583  0.3032 -0.0983 -1.5909
 7273SOL    MW428866   4.213   5.467   3.625  0.4327  0.1623 -0.5997
 7274SOL     OW28867   5.408   3.936   2.389 -0.2628  0.1322 -0.1433
 7274SOL    HW228868   5.333   3.883   2.361  0.0402  0.2642 -1.2753
 7274SOL    HW328869   5.465   3.874   2.434 -1.9733  0.4431  2.6757
 7274SOL    MW428870   5.406   3.921   2.391 -0.3779  0.6181 -0.4725
 7275SOL     OW28871   1.901   5.245   5.806 -0.3745 -0.2290 -0.3829
 7275SOL    HW228872   1.907   5.218   5.898 -1.0007 -1.5707 -0.7200
 7275SOL    HW328873   1.982   5.213   5.767  0.8367  2.0492  0.0740
 7275SOL    MW428874   1.913   5.237   5.813  0.1110 -0.7638  0.1044
 7276SOL     OW28875   5.061   2.901   3.356 -0.1490  0.3828  0.2692
 7276SOL    HW228876   5.145   2.899   3.402  0.3723 -0.5695 -0.6693
 7276SOL    HW328877   5.010   2.830   3.394  0.9560 -1.6204 -1.7390
 7276SOL    MW428878   5.065   2.892   3.367 -0.5883 -0.0889  0.1042
 7277SOL     OW28879   1.079   1.163   5.238 -0.3737  0.3089 -0.3942
 7277SOL    HW228880   1.056   1.146   5.146  2.1153  0.7514 -1.1541
 7277SOL    HW328881   1.109   1.254   5.239  2.2271 -0.4822  0.2504
 7277SOL    MW428882   1.080   1.173   5.226 -0.1200  0.5413 -0.0607
 7278SOL     OW28883   2.626   0.023   4.457 -0.0329  0.4586 -0.8349
 7278SOL    HW228884   2.610  -0.018   4.542 -0.1617  2.0832 -0.0300
 7278SOL    HW328885   2.628   0.117   4.476  0.2744  0.8406 -2.5837
 7278SOL    MW428886   2.624   0.030   4.471 -0.2113  0.7442  0.3104
 7279SOL     OW28887   0.413   0.948   1.975  0.2584 -0.2417 -0.4133
 7279SOL    HW228888   0.388   0.897   1.898 -0.2323  0.6318 -0.8456
 7279SOL    HW328889   0.406   1.039   1.947 -1.5198  0.1575  1.0873
 7279SOL    MW428890   0.409   0.953   1.961  0.8317 -0.3707 -0.5341
 7280SOL     OW28891   4.848   1.299   5.391  0.5829 -0.3854 -0.0728
 7280SOL    HW228892   4.799   1.261   5.318 -1.5722  0.3570  0.8879
 7280SOL    HW328893   4.849   1.393   5.373 -0.0597 -0.1828  0.8574
 7280SOL    MW428894   4.842   1.307   5.379 -0.4393 -0.3501  0.1213
 7281SOL     OW28895   2.106   0.151   3.831 -0.1416 -0.0717 -0.1432
 7281SOL    HW228896   2.167   0.081   3.805 -2.4365 -1.5338 -1.9988
 7281SOL    HW328897   2.043   0.108   3.888 -0.8981  0.7676 -0.3221
 7281SOL    MW428898   2.106   0.136   3.835  0.0665 -0.2691  1.1078
 7282SOL     OW28899   4.431   1.891   4.464  0.0558 -0.1036  0.6060
 7282SOL    HW228900   4.427   1.969   4.520  0.0425  1.3709 -1.3341
 7282SOL    HW328901   4.495   1.914   4.396 -0.8478 -1.3118 -0.6945
 7282SOL    MW428902   4.439   1.904   4.462 -0.4792 -0.7980  0.0959
 7283SOL     OW28903   5.847   0.062   5.043  0.0942 -0.1179 -0.3748
 7283SOL    HW228904   5.846   0.152   5.074  0.2267 -0.2052 -0.1188
 7283SOL    HW328905   5.939   0.041   5.031  0.0306  0.1182 -1.4331
 7283SOL    MW428906   5.859   0.071   5.045  0.6902 -0.4345  0.5484
 7284SOL     OW28907   6.039   1.340   0.580  0.2971 -0.3569 -0.0914
 7284SOL    HW228908   6.073   1.386   0.503  0.0016 -0.2582 -0.1641
 7284SOL    HW328909   5.978   1.402   0.621 -2.6270 -1.7459 -1.9618
 7284SOL    MW428910   6.035   1.354   0.576  0.0549 -0.4370 -0.5227
 7285SOL     OW28911   2.977   2.100   1.227  0.0535  0.1098  0.1571
 7285SOL    HW228912   3.071   2.084   1.232  0.1745  0.8400  0.2709
 7285SOL    HW328913   2.944   2.077   1.314  0.0815 -0.3703  0.0475
 7285SOL    MW428914   2.985   2.095   1.239  0.8876 -0.2171  0.2188
 7286SOL     OW28915   0.481   3.285   0.336  0.4832 -0.0492  0.7391
 7286SOL    HW228916   0.420   3.351   0.369 -0.0324  0.4637 -1.1347
 7286SOL    HW328917   0.566   3.311   0.372  0.0448  0.7950  1.2003
 7286SOL    MW428918   0.484   3.297   0.346  0.6698 -0.0312  0.8532
 7287SOL     OW28919   2.992   3.726   0.436 -0.1152  0.3946  0.6503
 7287SOL    HW228920   2.981   3.655   0.500  1.9795 -0.7412 -0.1572
 7287SOL    HW328921   2.945   3.696   0.359  0.8957 -0.2389  0.2569
 7287SOL    MW428922   2.984   3.712   0.434 -0.1740  0.4260 -0.0761
 7288SOL     OW28923   1.819   3.242   4.255  0.4316  0.1444  0.6635
 7288SOL    HW228924   1.741   3.246   4.200  0.3812  0.0126  0.7247
 7288SOL    HW328925   1.883   3.194   4.203  1.0574  1.7217 -0.0955
 7288SOL    MW428926   1.818   3.236   4.241 -0.3313 -0.3608 -0.3110
 7289SOL     OW28927   0.630   2.999   3.835 -0.4389  0.0352  0.2390
 7289SOL    HW228928   0.619   3.050   3.916 -0.6347  0.3110  0.0409
 7289SOL    HW328929   0.582   2.918   3.851  1.6798 -1.0752  1.4040
 7289SOL    MW428930   0.622   2.995   3.848  0.6777  0.1228 -0.2644
 7290SOL     OW28931   2.776   3.327   0.409 -0.3068  0.5841  0.1987
 7290SOL    HW228932   2.803   3.254   0.353 -2.0183 -0.0254  0.1035
 7290SOL    HW328933   2.720   3.380   0.353 -0.0998  1.2838  0.6474
 7290SOL    MW428934   2.772   3.324   0.394  0.1215 -0.1008 -0.0651
 7291SOL     OW28935   3.725   2.671   5.851 -0.3266 -0.0098 -0.3089
 7291SOL    HW228936   3.759   2.761   5.850 -1.6543  0.5045 -1.2852
 7291SOL    HW328937   3.774   2.629   5.922  1.3612  1.0561 -0.7748
 7291SOL    MW428938   3.736   2.677   5.860 -0.7464  0.0372  0.0190
 7292SOL     OW28939   4.631   3.958   2.750  0.0229 -0.0235 -0.2824
 7292SOL    HW228940   4.568   4.027   2.771  0.4496  0.1879  0.3254
 7292SOL    HW328941   4.677   3.941   2.832 -2.5745 -3.6795  0.6417
 7292SOL    MW428942   4.629   3.965   2.763 -0.0486  0.0804  0.5216
 7293SOL     OW28943   6.172   0.610   3.751 -0.4468  0.1913 -0.1524
 7293SOL    HW228944   6.202   0.643   3.835 -1.8069 -0.1515  0.4979
 7293SOL    HW328945   6.224   0.658   3.686  0.3459  0.7404  0.8666
 7293SOL    MW428946   6.183   0.621   3.753 -0.2913  0.2090 -0.3901
 7294SOL     OW28947   2.754   5.055   3.656  1.0638 -0.2679  0.0217
 7294SOL    HW228948   2.815   5.128   3.642  1.0535 -0.2005  0.3201
 7294SOL    HW328949   2.669   5.088   3.626  0.7632  0.3608  1.4950
 7294SOL    MW428950   2.751   5.069   3.650 -0.0245  0.7327  0.2525
 7295SOL     OW28951   1.122   1.385   5.767  0.2971 -0.4051  0.6237
 7295SOL    HW228952   1.112   1.474   5.799 -0.1697 -0.1849 -0.1204
 7295SOL    HW328953   1.216   1.370   5.766  0.3907  0.1849  0.4589
 7295SOL    MW428954   1.133   1.395   5.771  0.3126 -0.6577 -0.0635
 7296SOL     OW28955   2.876   0.115   5.454  0.0804 -1.1710 -0.3158
 7296SOL    HW228956   2.805   0.072   5.502  0.1269 -0.5176  0.3557
 7296SOL    HW328957   2.838   0.137   5.370 -1.3131  1.3142  0.8622
 7296SOL    MW428958   2.862   0.112   5.450 -0.4300  0.1885  0.0546
 7297SOL     OW28959   0.932   3.223   6.189  0.1865  0.1610 -0.6376
 7297SOL    HW228960   0.901   3.135   6.166  0.6601 -0.1674 -0.0433
 7297SOL    HW328961   0.909   3.277   6.114 -0.7162 -0.3311 -0.7240
 7297SOL    MW428962   0.925   3.218   6.176  0.5616  0.7474  0.4226
 7298SOL     OW28963   5.781   2.009   2.287  0.6492 -0.2831  0.3313
 7298SOL    HW228964   5.863   2.052   2.312 -0.1711  1.0465  0.8807
 7298SOL    HW328965   5.786   2.001   2.192  0.8003  1.1836  0.1857
 7298SOL    MW428966   5.792   2.014   2.278  0.3077  0.8691 -0.0786
 7299SOL     OW28967   0.991   3.228   4.435  0.8418 -0.1452  0.0126
 7299SOL    HW228968   0.925   3.295   4.451  1.0335  0.3110 -1.0410
 7299SOL    HW328969   1.010   3.192   4.522  0.3091  0.7577  0.5150
 7299SOL    MW428970   0.985   3.232   4.449 -0.5412 -0.1161  0.0648
 7300SOL     OW28971   4.708   3.467   1.945  0.2494 -0.4810 -0.0016
 7300SOL    HW228972   4.779   3.503   1.998  0.4761 -0.8910 -0.0203
 7300SOL    HW328973   4.633   3.522   1.965  0.1849 -0.9678  1.1786
 7300SOL    MW428974   4.708   3.479   1.955  0.4479  0.1511 -0.0354
 7301SOL     OW28975   5.875   4.928   3.129 -0.4430  0.0715 -0.2976
 7301SOL    HW228976   5.928   4.863   3.083  0.3518  1.1342 -0.9245
 7301SOL    HW328977   5.817   4.964   3.062  0.1846  1.0794 -0.3228
 7301SOL    MW428978   5.875   4.924   3.114 -0.3134 -0.0273 -0.1096
 7302SOL     OW28979   2.397   4.180   5.858  0.1261 -0.2551 -0.0247
 7302SOL    HW228980   2.419   4.225   5.777 -0.3520 -0.1031 -0.0671
 7302SOL    HW328981   2.482   4.161   5.898  0.3334  0.9434  0.1415
 7302SOL    MW428982   2.411   4.183   5.853  0.0000  0.5430 -0.1976
 7303SOL     OW28983   0.424   0.935   5.513  0.0377 -0.1184  0.1104
 7303SOL    HW228984   0.335   0.955   5.542  0.1617  0.1362  0.3203
 7303SOL    HW328985   0.412   0.885   5.432 -0.2960 -0.1081  0.1512
 7303SOL    MW428986   0.410   0.931   5.506  0.1397  0.5350 -0.0435
 7304SOL     OW28987   4.682   4.682   3.574  0.0347  0.2651  0.3737
 7304SOL    HW228988   4.712   4.596   3.545  1.2627  0.3079  1.4341
 7304SOL    HW328989   4.623   4.664   3.648 -0.8609  0.2871 -0.3166
 7304SOL    MW428990   4.678   4.669   3.580  1.2185  0.0664  1.0541
 7305SOL     OW28991   1.711   4.419   5.581  0.5376  0.0750 -0.1223
 7305SOL    HW228992   1.785   4.476   5.561 -0.8154  2.4319  1.2103
 7305SOL    HW328993   1.721   4.399   5.675  0.5839 -1.3314 -0.4019
 7305SOL    MW428994   1.722   4.424   5.591  0.4608 -0.3053  0.2131
 7306SOL     OW28995   0.353   0.800   5.290 -0.1218  0.3363  0.2867
 7306SOL    HW228996   0.319   0.880   5.249 -0.0744 -0.9344 -2.4411
 7306SOL    HW328997   0.276   0.744   5.300  0.4276 -0.8400 -1.7407
 7306SOL    MW428998   0.338   0.803   5.286 -0.3319  0.0584  0.1973
 7307SOL     OW28999   1.085   5.374   0.553  0.8407 -0.5349 -0.0337
 7307SOL    HW229000   1.019   5.417   0.499 -1.4706 -1.5040  1.8404
 7307SOL    HW329001   1.114   5.299   0.501 -1.4405 -1.5391  0.0056
 7307SOL    MW429002   1.080   5.370   0.539  0.1219 -0.1992 -0.0871
 7308SOL     OW29003   4.527   2.463   2.634  0.3774  0.0423 -0.0842
 7308SOL    HW229004   4.588   2.515   2.581 -1.4124  1.5118 -0.8196
 7308SOL    HW329005   4.538   2.497   2.723 -0.3681  1.3555 -0.4619
 7308SOL    MW429006   4.537   2.475   2.638  0.1552 -0.9879  0.1767
 7309SOL     OW29007   5.594   1.322   0.169 -0.3350 -0.3814 -0.0299
 7309SOL    HW229008   5.543   1.243   0.154 -0.0274 -0.8091  1.0790
 7309SOL    HW329009   5.670   1.293   0.221  0.3136  0.4702 -0.4640
 7309SOL    MW429010   5.598   1.308   0.174  0.1927  0.0441 -0.0727
 7310SOL     OW29011   3.400   5.854   4.547 -0.0694  0.0509  0.6620
 7310SOL    HW229012   3.465   5.802   4.595  0.0713 -0.5573 -0.1534
 7310SOL    HW329013   3.365   5.915   4.612  3.5142  2.5763  0.4653
 7310SOL    MW429014   3.404   5.855   4.562  0.0116  0.2242 -0.0003
 7311SOL     OW29015   3.869   3.678   2.880 -0.2324  0.2871 -0.1389
 7311SOL    HW229016   3.839   3.591   2.904  1.0064 -0.5603 -1.4426
 7311SOL    HW329017   3.805   3.709   2.816 -0.4473  0.1605  0.0138
 7311SOL    MW429018   3.857   3.671   2.874  0.1230 -0.1355  0.9785
 7312SOL     OW29019   4.439   4.266   0.083  0.2963  0.1895  0.3650
 7312SOL    HW229020   4.394   4.191   0.045 -0.3808 -0.0049  1.5029
 7312SOL    HW329021   4.434   4.333   0.015 -1.8668  0.2199  0.4736
 7312SOL    MW429022   4.432   4.265   0.069 -0.3081  0.6036  0.8058
 7313SOL     OW29023   5.618   5.567   0.828 -0.1917  0.0772 -0.3252
 7313SOL    HW229024   5.545   5.559   0.767  1.2840 -0.5841 -2.1413
 7313SOL    HW329025   5.673   5.490   0.809 -0.7757 -1.5137  3.5264
 7313SOL    MW429026   5.616   5.556   0.817 -0.6062 -0.2601 -0.2782
 7314SOL     OW29027   0.050   5.065   3.973 -0.3793  0.7647 -0.1767
 7314SOL    HW229028   0.049   4.969   3.964 -2.1891  0.5401  1.7022
 7314SOL    HW329029   0.037   5.098   3.884 -1.2872 -0.7834 -0.6571
 7314SOL    MW429030   0.048   5.056   3.960 -0.1122 -0.4251 -0.3650
 7315SOL     OW29031   3.825   5.526   3.880  0.0791  0.4581  0.5066
 7315SOL    HW229032   3.842   5.434   3.859 -0.7327  0.4202 -0.0215
 7315SOL    HW329033   3.730   5.531   3.891  0.1792  1.1148  1.1491
 7315SOL    MW429034   3.814   5.515   3.879  0.4162 -0.3100  0.2402
 7316SOL     OW29035   0.437   2.150   6.089 -0.5139  0.1665 -0.8821
 7316SOL    HW229036   0.362   2.183   6.139 -1.6699 -2.3849 -0.7939
 7316SOL    HW329037   0.510   2.152   6.151 -1.1192  0.2477 -0.1518
 7316SOL    MW429038   0.437   2.155   6.104 -0.3388  0.6985 -0.3197
 7317SOL     OW29039   4.294   3.897   1.992  0.5383  0.3368  0.0604
 7317SOL    HW229040   4.360   3.830   2.011  1.4017  1.0321 -0.4246
 7317SOL    HW329041   4.246   3.908   2.074  1.3624  0.1999  0.5713
 7317SOL    MW429042   4.296   3.889   2.005 -0.1311  0.0150  0.4511
 7318SOL     OW29043   1.560   0.716   1.281 -0.4057 -0.2985  0.2995
 7318SOL    HW229044   1.508   0.788   1.317 -0.8882 -0.7238  0.4667
 7318SOL    HW329045   1.617   0.690   1.353 -0.9912 -0.7921  0.5941
 7318SOL    MW429046   1.560   0.722   1.296  0.2564 -0.0843  0.2119
 7319SOL     OW29047   3.767   5.216   4.537 -0.3164 -0.5057 -0.1127
 7319SOL    HW229048   3.770   5.272   4.614  0.0695  1.6343 -1.5849
 7319SOL    HW329049   3.682   5.234   4.497 -1.4392 -3.1796  0.8315
 7319SOL    MW429050   3.756   5.226   4.542 -0.5484 -0.0365 -0.0004
 7320SOL     OW29051   2.295   0.745   5.428 -0.2578 -0.0338 -0.0209
 7320SOL    HW229052   2.381   0.704   5.438 -0.2930 -0.6798 -1.9478
 7320SOL    HW329053   2.314   0.831   5.392 -0.4321 -0.6680 -1.7176
 7320SOL    MW429054   2.309   0.751   5.425  0.3430  0.1809 -0.4195
 7321SOL     OW29055   3.827   0.392   6.106 -0.0667  0.5974 -0.5494
 7321SOL    HW229056   3.750   0.350   6.070 -0.1242  0.2880 -0.0806
 7321SOL    HW329057   3.800   0.482   6.123 -0.2409  0.5613 -0.6351
 7321SOL    MW429058   3.814   0.398   6.104  0.0813  0.2980 -0.0860
 7322SOL     OW29059   3.822   6.300   4.001 -0.6949 -0.5329  0.3560
 7322SOL    HW229060   3.830   6.390   4.035 -0.1485 -0.2277 -0.5469
 7322SOL    HW329061   3.816   6.246   4.080  1.6420  0.0630  1.0252
 7322SOL    MW429062   3.822   6.305   4.016 -0.5272  0.1339 -0.3597
 7323SOL     OW29063   4.989   0.713   6.036  0.0060 -0.4563  0.0121
 7323SOL    HW229064   5.005   0.807   6.023  1.4395 -0.4952  1.2065
 7323SOL    HW329065   5.075   0.673   6.029 -0.4954 -1.6094  0.1990
 7323SOL    MW429066   5.002   0.720   6.033  0.0665 -1.2158  0.2297
 7324SOL     OW29067   2.089   1.090   0.649 -0.3414  0.1206  0.1097
 7324SOL    HW229068   2.066   1.040   0.727  1.5339 -0.5781  0.2481
 7324SOL    HW329069   2.147   1.033   0.599  0.6220  1.5670 -0.4945
 7324SOL    MW429070   2.093   1.076   0.652  0.0012 -0.3069 -0.2185
 7325SOL     OW29071   5.191   5.883   6.115  0.4844 -0.1230  0.6444
 7325SOL    HW229072   5.204   5.953   6.179  1.3101 -0.3482  0.7297
 7325SOL    HW329073   5.122   5.916   6.057 -1.5248 -0.5900  2.6124
 7325SOL    MW429074   5.183   5.897   6.116 -0.1585  0.3511  0.0497
 7326SOL     OW29075   4.601   5.644   0.403 -0.0199 -0.5345  0.5708
 7326SOL    HW229076   4.660   5.608   0.336 -0.3341 -0.3470  0.1858
 7326SOL    HW329077   4.574   5.569   0.455  1.2498 -0.5089  1.3160
 7326SOL    MW429078   4.606   5.630   0.401  0.3126 -0.2561 -0.6938
 7327SOL     OW29079   3.440   3.509   0.397 -0.6370 -0.1087 -0.5161
 7327SOL    HW229080   3.454   3.466   0.313  0.3740 -0.4627 -0.1829
 7327SOL    HW329081   3.397   3.592   0.375  0.3633  0.1818 -1.4535
 7327SOL    MW429082   3.436   3.514   0.383  0.3448 -0.3071 -0.0356
 7328SOL     OW29083   5.699   4.004   1.722 -0.5585  0.3257  0.0647
 7328SOL    HW229084   5.633   4.011   1.653 -2.5321 -0.3213  1.7664
 7328SOL    HW329085   5.780   4.033   1.681 -1.8352  0.9289 -2.2121
 7328SOL    MW429086   5.701   4.009   1.707 -0.5671 -0.0512 -0.5416
 7329SOL     OW29087   3.229   1.732   5.682  0.1219  0.2937 -0.3633
 7329SOL    HW229088   3.205   1.748   5.591  2.3046 -0.0603 -1.0342
 7329SOL    HW329089   3.324   1.743   5.685  0.4050 -1.8959  1.3990
 7329SOL    MW429090   3.238   1.736   5.671  0.3109  1.0017  0.3441
 7330SOL     OW29091   4.355   5.799   5.570 -0.3671 -0.8073  0.2746
 7330SOL    HW229092   4.306   5.805   5.488  0.7276  0.1447 -0.3334
 7330SOL    HW329093   4.289   5.816   5.638 -0.9070  0.3850 -0.5140
 7330SOL    MW429094   4.340   5.802   5.568  0.4937  0.2960 -0.1572
 7331SOL     OW29095   3.610   3.812   3.347  0.3591  0.2322 -0.2874
 7331SOL    HW229096   3.624   3.771   3.432 -0.6407 -1.2109 -0.7634
 7331SOL    HW329097   3.677   3.880   3.341  1.9430 -1.1490  0.6946
 7331SOL    MW429098   3.621   3.816   3.357  0.2046 -0.1233 -0.2970
 7332SOL     OW29099   1.866   5.835   2.052  0.1240  0.2091  0.2388
 7332SOL    HW229100   1.806   5.775   2.095 -0.6254  1.3883  0.8884
 7332SOL    HW329101   1.869   5.912   2.109  1.0743  0.7907 -0.5456
 7332SOL    MW429102   1.859   5.837   2.065  0.2196 -0.0527  0.2975
 7333SOL     OW29103   3.082   1.269   3.099  0.0124  0.0515  0.3667
 7333SOL    HW229104   3.178   1.274   3.105 -0.0474 -0.0282  1.6570
 7333SOL    HW329105   3.057   1.348   3.051  0.6321  0.8274  1.2775
 7333SOL    MW429106   3.092   1.280   3.093  0.0659 -0.2842  0.1188
 7334SOL     OW29107   2.885   1.014   1.744  0.0132 -0.3682 -0.3410
 7334SOL    HW229108   2.874   0.927   1.704  0.3302 -0.0569 -1.1191
 7334SOL    HW329109   2.796   1.043   1.762 -0.0564 -1.5594  1.4989
 7334SOL    MW429110   2.872   1.006   1.741 -0.2142  0.0803 -0.1449
 7335SOL     OW29111   0.249   0.151   3.104 -0.3018  0.3460  0.3519
 7335SOL    HW229112   0.191   0.106   3.043 -0.1931  0.8527 -0.1483
 7335SOL    HW329113   0.202   0.152   3.187 -0.0252 -1.2458  0.5532
 7335SOL    MW429114   0.235   0.146   3.107  0.6917 -0.2292 -0.3039
 7336SOL     OW29115   1.043   4.715   5.186 -0.1688 -0.1910 -0.1209
 7336SOL    HW229116   1.009   4.630   5.158  0.9583 -0.7518  0.1556
 7336SOL    HW329117   1.002   4.778   5.126 -0.8792 -0.9367 -0.4438
 7336SOL    MW429118   1.033   4.712   5.174  0.1298 -0.2457 -0.1187
 7337SOL     OW29119   2.007   0.133   6.314  0.1832  0.0446  0.0869
 7337SOL    HW229120   2.083   0.171   6.356  1.2266 -2.1183  0.2931
 7337SOL    HW329121   2.031   0.127   6.221 -0.9045  1.9732 -0.3653
 7337SOL    MW429122   2.020   0.137   6.307 -0.3484 -0.2293  0.2479
 7338SOL     OW29123   4.701   1.364   5.833  0.2820  0.0619  0.2361
 7338SOL    HW229124   4.632   1.424   5.863 -0.2535  0.1716 -1.1079
 7338SOL    HW329125   4.780   1.418   5.832  0.0872  0.3580  0.3791
 7338SOL    MW429126   4.702   1.379   5.837  0.1641 -0.3034  0.8529
 7339SOL     OW29127   0.162   6.349   3.944  0.3296 -0.6346  0.7879
 7339SOL    HW229128   0.186   6.387   4.028  0.5928 -1.3539  1.0472
 7339SOL    HW329129   0.072   6.378   3.929  0.1962 -0.7041  1.4318
 7339SOL    MW429130   0.153   6.358   3.953 -0.0577  0.4515  0.5680
 7340SOL     OW29131   4.889   1.634   3.884 -0.4183 -0.2783  0.0357
 7340SOL    HW229132   4.910   1.547   3.918 -1.4329 -1.2582 -1.6983
 7340SOL    HW329133   4.964   1.689   3.909 -0.0820 -1.4512  1.7692
 7340SOL    MW429134   4.902   1.630   3.892 -0.1417 -0.6007  0.1570
 7341SOL     OW29135   1.777   4.247   0.995  0.1705 -0.4792 -0.1423
 7341SOL    HW229136   1.738   4.270   0.910  1.9487 -1.9686 -1.4329
 7341SOL    HW329137   1.713   4.189   1.035  0.6856 -2.4566 -1.9853
 7341SOL    MW429138   1.763   4.243   0.989  0.5496  0.6977  0.0084
 7342SOL     OW29139   2.524   3.393   2.120  0.3609  0.3866  0.3331
 7342SOL    HW229140   2.588   3.381   2.051  0.3450  1.4796  0.1073
 7342SOL    HW329141   2.555   3.470   2.169 -1.6811  2.1034 -0.8905
 7342SOL    MW429142   2.536   3.402   2.118 -0.2486  0.2059 -0.1125
 7343SOL     OW29143   3.508   2.368   5.293 -0.1988  0.3244  0.0095
 7343SOL    HW229144   3.589   2.354   5.342  0.6250  0.5961 -1.2279
 7343SOL    HW329145   3.531   2.346   5.203 -0.9617  2.2541 -0.6977
 7343SOL    MW429146   3.522   2.363   5.288 -0.1483  0.1586  0.4044
 7344SOL     OW29147   3.163   1.651   4.167  0.3518  0.7749 -0.4653
 7344SOL    HW229148   3.173   1.625   4.259 -0.7348  0.3439 -0.4436
 7344SOL    HW329149   3.104   1.585   4.131 -0.0344  1.5186 -1.2198
 7344SOL    MW429150   3.156   1.639   4.175 -0.2558 -0.2357  0.0365
 7345SOL     OW29151   4.118   5.098   0.930 -0.0148 -0.1428  0.1534
 7345SOL    HW229152   4.135   5.006   0.950 -0.3748 -0.3334 -0.4016
 7345SOL    HW329153   4.103   5.100   0.836  0.1119  0.5067  0.1425
 7345SOL    MW429154   4.118   5.086   0.920 -0.0354 -0.0942  0.3650
 7346SOL     OW29155   1.900   0.356   1.136 -0.2101 -0.0080 -0.1313
 7346SOL    HW229156   1.994   0.351   1.155 -0.0038  0.5390 -0.9481
 7346SOL    HW329157   1.866   0.270   1.161  0.6525 -0.4803 -0.5397
 7346SOL    MW429158   1.908   0.344   1.142  0.3754  0.1978 -0.1350
 7347SOL     OW29159   5.619   6.094   1.466  0.1225  0.2239 -0.1969
 7347SOL    HW229160   5.571   6.024   1.422 -0.8371  1.2877 -0.9184
 7347SOL    HW329161   5.611   6.169   1.407  1.3789  0.8711  0.4073
 7347SOL    MW429162   5.612   6.095   1.452  0.1810  0.4415  0.9526
 7348SOL     OW29163   2.369   6.209   0.074  0.4261 -0.0023 -0.0207
 7348SOL    HW229164   2.360   6.279   0.138 -0.5943  0.1426 -0.3029
 7348SOL    HW329165   2.283   6.166   0.073  0.8599 -0.8805 -0.2770
 7348SOL    MW429166   2.356   6.212   0.082 -0.2648 -0.3531  0.4874
 7349SOL     OW29167   5.569   4.290   4.425 -0.5471  0.0251  0.2256
 7349SOL    HW229168   5.511   4.223   4.389  1.1256 -0.3003 -2.1376
 7349SOL    HW329169   5.644   4.291   4.365  1.4543  1.0664  2.5705
 7349SOL    MW429170   5.572   4.281   4.412 -0.2390 -0.1274  0.0045
 7350SOL     OW29171   5.501   6.425   3.631  0.6294  0.0220  0.3996
 7350SOL    HW229172   5.462   6.345   3.596 -0.1651  0.0797  1.1059
 7350SOL    HW329173   5.442   6.495   3.600  1.5368  0.3932 -0.5491
 7350SOL    MW429174   5.488   6.424   3.622 -0.0345  0.2226  0.8428
 7351SOL     OW29175   5.607   5.505   2.292 -0.4363  0.0518  0.2135
 7351SOL    HW229176   5.692   5.469   2.315  0.1557  0.8966 -0.5837
 7351SOL    HW329177   5.547   5.469   2.356  0.4834 -0.7495  0.6346
 7351SOL    MW429178   5.610   5.496   2.303  0.3070  0.1230  0.2978
 7352SOL     OW29179   2.033   5.090   2.148  0.2784  0.0345  0.5512
 7352SOL    HW229180   2.037   5.007   2.197 -0.4485  0.1755  0.8683
 7352SOL    HW329181   2.058   5.067   2.059 -2.3339 -1.0623  0.0045
 7352SOL    MW429182   2.037   5.076   2.143  0.2697 -0.6189 -0.1112
 7353SOL     OW29183   5.336   1.645   2.845  0.2398 -0.3062 -0.3013
 7353SOL    HW229184   5.371   1.727   2.879 -2.5143  0.9110 -0.2126
 7353SOL    HW329185   5.336   1.586   2.920  2.8070 -0.7007 -0.5025
 7353SOL    MW429186   5.341   1.648   2.859  0.5998  0.0859  0.1816
 7354SOL     OW29187   4.876   5.702   0.132 -0.4386 -0.6320 -0.2285
 7354SOL    HW229188   4.945   5.725   0.194 -0.5304 -0.0634 -0.3325
 7354SOL    HW329189   4.841   5.619   0.165  1.3120 -1.7452 -1.0079
 7354SOL    MW429190   4.880   5.694   0.144 -0.0894 -0.1656  0.6990
 7355SOL     OW29191   5.296   6.246   0.083 -0.3257  0.4028  0.4973
 7355SOL    HW229192   5.253   6.200   0.010 -0.9543  0.7446  0.6428
 7355SOL    HW329193   5.372   6.289   0.044  0.7640 -1.4205  0.4995
 7355SOL    MW429194   5.300   6.245   0.068 -0.4686  0.8146  0.0380
 7356SOL     OW29195   5.618   4.458   1.938 -0.4812  0.2594  0.2970
 7356SOL    HW229196   5.642   4.523   2.003 -0.3928  1.1464 -0.6074
 7356SOL    HW329197   5.551   4.404   1.981  0.0039  0.4568  1.3142
 7356SOL    MW429198   5.612   4.459   1.952 -0.9850 -0.2237 -0.0425
 7357SOL     OW29199   4.453   6.182   1.188 -0.7281  0.2331  0.5119
 7357SOL    HW229200   4.476   6.105   1.239  1.6395  1.5398  1.5925
 7357SOL    HW329201   4.397   6.234   1.246 -1.3181 -0.0916  0.2422
 7357SOL    MW429202   4.449   6.179   1.202  0.2534  0.1147  0.6444
 7358SOL     OW29203   4.648   2.633   4.819  0.1629 -0.1516  0.2924
 7358SOL    HW229204   4.564   2.607   4.857 -0.1046  1.7853  1.0939
 7358SOL    HW329205   4.713   2.598   4.880 -0.0504 -1.2113 -0.0613
 7358SOL    MW429206   4.645   2.625   4.832  0.0021  0.3707  0.3800
 7359SOL     OW29207   3.932   5.811   1.073 -0.0626 -0.6010 -0.5146
 7359SOL    HW229208   3.993   5.806   0.999  0.2323 -0.1915 -0.3062
 7359SOL    HW329209   3.868   5.742   1.057  0.2200 -0.7622 -0.9545
 7359SOL    MW429210   3.932   5.801   1.061 -0.3210 -0.1809 -0.3506
 7360SOL     OW29211   2.319   3.855   4.112  0.0011  0.0296  0.3752
 7360SOL    HW229212   2.236   3.896   4.086  0.0522 -0.6614 -0.9371
 7360SOL    HW329213   2.386   3.903   4.064  0.0879 -1.3457 -0.9403
 7360SOL    MW429214   2.317   3.867   4.102 -0.6786 -0.2834  0.0815
 7361SOL     OW29215   2.820   0.683   5.385 -0.2388 -0.3739  0.2678
 7361SOL    HW229216   2.903   0.722   5.412 -0.0782 -1.1207  0.8950
 7361SOL    HW329217   2.838   0.645   5.299 -0.1690  0.1861  0.0292
 7361SOL    MW429218   2.834   0.683   5.377 -0.0425 -0.4394 -0.1594
 7362SOL     OW29219   5.621   1.966   6.125 -0.0439 -0.1623 -0.1425
 7362SOL    HW229220   5.587   1.990   6.040  0.5478 -1.2180 -0.7010
 7362SOL    HW329221   5.597   2.039   6.183 -0.9873  0.2737 -1.0622
 7362SOL    MW429222   5.613   1.979   6.122  0.0958  0.3318  0.1077
 7363SOL     OW29223   3.590   2.700   5.182 -0.0875 -0.0108  0.2723
 7363SOL    HW229224   3.653   2.629   5.164 -0.0333  0.1307 -0.0919
 7363SOL    HW329225   3.619   2.772   5.126 -1.1222 -0.2523 -0.5912
 7363SOL    MW429226   3.602   2.700   5.172  0.3223  0.2128 -0.4493
 7364SOL     OW29227   0.623   2.980   1.920  0.2593 -0.1144 -0.8701
 7364SOL    HW229228   0.596   2.996   1.830 -2.1376 -0.1919 -0.2334
 7364SOL    HW329229   0.570   2.905   1.948  1.6585 -0.7162  0.3220
 7364SOL    MW429230   0.612   2.972   1.912 -0.3383 -0.2609 -0.6302
 7365SOL     OW29231   3.059   2.745   3.755 -0.1096  0.3073 -0.0216
 7365SOL    HW229232   3.138   2.786   3.791 -1.6847  1.8270  1.9597
 7365SOL    HW329233   3.042   2.791   3.673  1.1884 -0.2543 -0.6344
 7365SOL    MW429234   3.067   2.756   3.749  0.0870 -0.2148 -0.4593
 7366SOL     OW29235   4.765   0.629   4.103  0.4239 -0.5489  0.0640
 7366SOL    HW229236   4.860   0.631   4.101  0.4181 -0.3683 -1.7653
 7366SOL    HW329237   4.738   0.665   4.018 -1.2738 -0.4580  0.5982
 7366SOL    MW429238   4.774   0.634   4.091  0.0992  0.0457  0.2531
 7367SOL     OW29239   3.816   5.576   2.604  0.0882  1.1943 -0.8193
 7367SOL    HW229240   3.903   5.613   2.593 -0.7876  3.3587 -1.0059
 7367SOL    HW329241   3.757   5.640   2.562 -1.6197 -0.0350 -0.4293
 7367SOL    MW429242   3.819   5.590   2.597 -0.5931 -0.0196  0.4766
 7368SOL     OW29243   1.185   6.412   1.773  0.1640 -0.6238 -0.2580
 7368SOL    HW229244   1.245   6.487   1.778  0.0010 -0.5705  2.6406
 7368SOL    HW329245   1.242   6.336   1.766  0.5260 -0.4326  0.4618
 7368SOL    MW429246   1.200   6.412   1.773 -0.0660  0.2503 -0.1797
 7369SOL     OW29247   0.558   3.628   0.226 -0.3933  0.0739 -0.0724
 7369SOL    HW229248   0.548   3.717   0.191  0.7270  0.4019  0.4113
 7369SOL    HW329249   0.634   3.592   0.180 -1.0263 -0.7700 -0.5000
 7369SOL    MW429250   0.567   3.635   0.215  0.4521 -0.2051  0.1516
 7370SOL     OW29251   6.127   4.581   3.319 -0.5000  0.3064  0.0396
 7370SOL    HW229252   6.140   4.632   3.398  0.3536  2.5681 -1.4755
 7370SOL    HW329253   6.215   4.565   3.285 -0.8356 -0.8706 -0.3505
 7370SOL    MW429254   6.140   4.585   3.325  0.4917 -0.5283  0.2748
 7371SOL     OW29255   1.593   1.888   1.628  0.5422  0.1251 -0.3269
 7371SOL    HW229256   1.571   1.982   1.630 -2.4483 -0.4644 -0.1622
 7371SOL    HW329257   1.626   1.873   1.539  2.5076  1.5537  0.0968
 7371SOL    MW429258   1.594   1.899   1.616 -0.1455 -0.2454 -0.3462
 7372SOL     OW29259   0.597   1.775   0.760  0.0148 -0.2387  0.5715
 7372SOL    HW229260   0.680   1.816   0.735  0.0051 -0.4539  0.1705
 7372SOL    HW329261   0.530   1.839   0.736 -0.0682 -0.8437 -0.9208
 7372SOL    MW429262   0.599   1.789   0.753 -0.2156  0.1090  0.1290
 7373SOL     OW29263   4.118   1.956   4.094 -0.3065  0.5827  0.0486
 7373SOL    HW229264   4.190   2.006   4.057 -2.9104  2.7106 -2.6267
 7373SOL    HW329265   4.132   1.961   4.189  3.4613  0.0139 -0.3108
 7373SOL    MW429266   4.129   1.963   4.102  0.7376  0.3627  0.4808
 7374SOL     OW29267   2.575   2.501   3.019  0.3510  0.0487  0.3419
 7374SOL    HW229268   2.507   2.544   3.071  0.5696  1.1815 -0.2706
 7374SOL    HW329269   2.627   2.573   2.984 -1.0410 -0.4956 -3.1996
 7374SOL    MW429270   2.573   2.516   3.021  0.4197  0.1031 -0.3539
 7375SOL     OW29271   4.423   1.416   4.174 -0.0083 -0.1927 -0.4429
 7375SOL    HW229272   4.459   1.327   4.172 -1.9967 -1.0377 -1.0146
 7375SOL    HW329273   4.473   1.461   4.242  1.5088 -1.5325 -0.6374
 7375SOL    MW429274   4.434   1.410   4.183  0.5529  0.0818  0.1801
 7376SOL     OW29275   3.822   0.086   3.225 -0.2074 -0.3264  0.2916
 7376SOL    HW229276   3.816   0.068   3.131 -1.0348 -0.4378  0.3629
 7376SOL    HW329277   3.764   0.022   3.266 -0.5853  0.3255  0.8053
 7376SOL    MW429278   3.814   0.075   3.218  0.2806 -0.0981 -0.3632
 7377SOL     OW29279   4.284   5.174   1.156  0.0328  0.6133  0.1654
 7377SOL    HW229280   4.373   5.154   1.127  0.4449  2.8887 -0.2859
 7377SOL    HW329281   4.229   5.157   1.080  0.2796  0.6561 -0.0224
 7377SOL    MW429282   4.288   5.169   1.142  0.6067 -0.9539 -0.5064
 7378SOL     OW29283   4.334   3.477   2.306 -0.0922  0.3823  0.4971
 7378SOL    HW229284   4.307   3.389   2.331 -1.2225  0.0009 -1.7868
 7378SOL    HW329285   4.372   3.467   2.219 -0.0707  2.1201  0.2678
 7378SOL    MW429286   4.335   3.464   2.298 -0.3860 -0.3436 -0.3370
 7379SOL     OW29287   1.719   5.039   4.266 -0.6129  0.2087 -0.0770
 7379SOL    HW229288   1.761   5.114   4.307  0.2730 -0.2040 -0.2105
 7379SOL    HW329289   1.710   5.064   4.174  2.0653 -0.8084 -0.6966
 7379SOL    MW429290   1.723   5.052   4.259  0.1553  0.2026  0.2795
 7380SOL     OW29291   4.222   4.828   4.947 -0.2444 -0.5071  0.4836
 7380SOL    HW229292   4.208   4.899   5.009 -1.4315  1.8827 -2.3330
 7380SOL    HW329293   4.316   4.827   4.932 -0.2235  0.5214  0.5161
 7380SOL    MW429294   4.233   4.837   4.953 -0.1388  0.1271 -0.1640
 7381SOL     OW29295   1.420   5.316   0.452 -0.6444 -0.3476  0.1698
 7381SOL    HW229296   1.342   5.359   0.417  0.8498  1.6225 -1.0014
 7381SOL    HW329297   1.476   5.303   0.375  1.4346  1.1417  1.3195
 7381SOL    MW429298   1.417   5.320   0.437 -0.0586  0.2883 -0.2958
 7382SOL     OW29299   5.455   1.371   4.458  0.2506 -0.3511 -0.2412
 7382SOL    HW229300   5.543   1.355   4.492  0.8776  0.9868 -1.1549
 7382SOL    HW329301   5.412   1.422   4.527  0.2561 -0.7803  0.0899
 7382SOL    MW429302   5.461   1.375   4.472 -0.3806 -0.6857 -0.1791
 7383SOL     OW29303   0.506   2.009   0.962 -0.2846 -0.0170 -0.9727
 7383SOL    HW229304   0.597   1.990   0.939 -0.2877  0.3614 -1.3188
 7383SOL    HW329305   0.464   2.030   0.878 -0.4198  0.8883 -0.6969
 7383SOL    MW429306   0.512   2.010   0.948 -0.1923 -0.2009  0.1508
 7384SOL     OW29307   3.188   4.303   3.276 -0.0174  0.1521 -0.3996
 7384SOL    HW229308   3.114   4.357   3.303 -0.2661 -0.6792  0.7029
 7384SOL    HW329309   3.197   4.238   3.346 -0.1453 -1.6373 -1.9473
 7384SOL    MW429310   3.180   4.301   3.289  0.6808  0.5509 -0.6900
 7385SOL     OW29311   4.671   4.403   0.484 -0.3231 -0.1985  0.2779
 7385SOL    HW229312   4.617   4.428   0.409  0.2794  1.3886  0.3407
 7385SOL    HW329313   4.632   4.321   0.514 -0.1785 -1.2645 -2.1673
 7385SOL    MW429314   4.659   4.395   0.478 -0.8457 -0.5476 -0.3006
 7386SOL     OW29315   5.885   0.906   4.821  0.2009 -0.0482 -0.2239
 7386SOL    HW229316   5.939   0.851   4.878 -3.5469 -2.0926  1.7322
 7386SOL    HW329317   5.841   0.967   4.880 -1.7655 -0.4165 -1.2170
 7386SOL    MW429318   5.887   0.907   4.836  0.4297  0.2676  0.4651
 7387SOL     OW29319   3.771   4.792   4.218  0.1249  0.4228 -0.5572
 7387SOL    HW229320   3.805   4.877   4.245  0.6030 -0.0522  0.4049
 7387SOL    HW329321   3.738   4.753   4.299 -0.8063  0.0153 -1.1236
 7387SOL    MW429322   3.771   4.798   4.232 -0.0117 -0.8259  0.3559
 7388SOL     OW29323   4.301   4.954   1.399 -0.0935 -0.1259  0.4589
 7388SOL    HW229324   4.229   4.997   1.354 -0.3331  0.4700  1.3745
 7388SOL    HW329325   4.277   4.862   1.403  0.1928 -0.2938 -1.0967
 7388SOL    MW429326   4.289   4.948   1.394  0.2676 -0.8198 -0.2149
 7389SOL     OW29327   1.613   2.953   6.007  0.0268 -0.5700 -0.1780
 7389SOL    HW229328   1.656   2.869   5.992  0.0619 -0.7584  0.9105
 7389SOL    HW329329   1.564   2.940   6.088 -1.6931 -0.2081 -1.1091
 7389SOL    MW429330   1.612   2.940   6.016 -0.4361  0.6826 -0.5363
 7390SOL     OW29331   6.350   2.022   5.240  0.2196 -0.5289  0.4042
 7390SOL    HW229332   6.310   1.943   5.276  1.2515 -1.2084  0.0941
 7390SOL    HW329333   6.377   1.997   5.152 -1.0362  0.7063 -0.3785
 7390SOL    MW429334   6.348   2.008   5.233 -0.6034  0.5948 -0.3364
 7391SOL     OW29335   1.592   3.520   0.144 -0.1440 -0.0044  0.5436
 7391SOL    HW229336   1.681   3.508   0.177  0.2549 -0.2011 -0.5620
 7391SOL    HW329337   1.547   3.438   0.164  0.3917 -0.5151 -0.3055
 7391SOL    MW429338   1.597   3.508   0.151  0.3104  0.0447 -0.0998
 7392SOL     OW29339   5.239   2.629   4.258  0.0813  0.4178  0.4307
 7392SOL    HW229340   5.163   2.627   4.200 -0.2694  2.8078  0.7060
 7392SOL    HW329341   5.312   2.656   4.201  0.0601  1.2004  0.7608
 7392SOL    MW429342   5.239   2.632   4.243  0.0142  0.3431  0.2698
 7393SOL     OW29343   0.363   0.233   4.976 -0.5440  0.1280 -0.3415
 7393SOL    HW229344   0.443   0.205   5.019 -1.5630 -0.2346  1.3992
 7393SOL    HW329345   0.360   0.328   4.990  0.1034  0.3242 -1.3858
 7393SOL    MW429346   0.373   0.242   4.983  0.1373 -0.6409 -0.0765
 7394SOL     OW29347   5.159   5.145   4.664 -0.0716  0.2520 -0.0765
 7394SOL    HW229348   5.108   5.218   4.698 -1.1657 -0.8185  0.6790
 7394SOL    HW329349   5.142   5.073   4.725  0.4984 -0.8100 -1.1156
 7394SOL    MW429350   5.150   5.145   4.677 -0.1015  0.2368  0.3036
 7395SOL     OW29351   2.902   3.998   0.972  0.2938 -0.1073  0.4828
 7395SOL    HW229352   2.825   4.050   0.995 -0.9856 -1.3942 -0.7250
 7395SOL    HW329353   2.885   3.968   0.883  2.0765 -0.6700  0.2978
 7395SOL    MW429354   2.890   4.001   0.963  0.1695  0.1389 -0.3823
 7396SOL     OW29355   4.366   5.150   5.857  0.2224 -0.5810 -0.3722
 7396SOL    HW229356   4.396   5.241   5.860  0.3388 -0.6100 -0.6198
 7396SOL    HW329357   4.343   5.130   5.947 -1.3893  0.2118 -0.5706
 7396SOL    MW429358   4.367   5.160   5.869  0.2402  0.1439  0.8091
 7397SOL     OW29359   0.611   3.576   2.360 -0.5189 -0.0465 -0.0071
 7397SOL    HW229360   0.657   3.656   2.384 -0.4210 -0.4269  1.1172
 7397SOL    HW329361   0.638   3.511   2.425 -1.2248 -0.7766 -0.4138
 7397SOL    MW429362   0.621   3.578   2.372  0.6399  0.2874 -0.1552
 7398SOL     OW29363   5.988   0.263   3.312 -0.0471  0.7662  0.5829
 7398SOL    HW229364   6.023   0.252   3.224 -2.1173  1.2595 -0.3639
 7398SOL    HW329365   6.050   0.217   3.368  0.7440 -0.5083 -1.2378
 7398SOL    MW429366   6.001   0.256   3.308  1.0651  0.2309  0.4111
 7399SOL     OW29367   2.450   0.786   1.898  0.1893  0.1697  0.7454
 7399SOL    HW229368   2.365   0.774   1.856  0.0980 -0.5840  1.1274
 7399SOL    HW329369   2.511   0.796   1.825 -0.1076 -0.1580  0.4447
 7399SOL    MW429370   2.447   0.786   1.882 -0.0542 -0.1156 -0.1468
 7400SOL     OW29371   4.405   2.905   0.229  0.1247 -0.6756 -0.0047
 7400SOL    HW229372   4.485   2.870   0.268  0.1520 -1.4053 -0.6810
 7400SOL    HW329373   4.430   2.991   0.196  0.6036 -0.8419 -0.0915
 7400SOL    MW429374   4.419   2.912   0.230 -0.8060  0.3326  0.3112
 7401SOL     OW29375   3.388   1.981   3.007  0.0055 -0.0859  0.1248
 7401SOL    HW229376   3.404   2.022   3.091  0.9358 -1.8929  0.8739
 7401SOL    HW329377   3.359   2.053   2.950 -0.8636  1.1278  2.0107
 7401SOL    MW429378   3.386   1.996   3.010 -0.3993 -0.0763  0.2033
 7402SOL     OW29379   2.310   2.900   6.382  0.0152 -0.3361 -0.5811
 7402SOL    HW229380   2.299   2.918   6.475  0.6999 -0.2077 -0.5177
 7402SOL    HW329381   2.226   2.865   6.354 -0.3544  0.0953 -0.0260
 7402SOL    MW429382   2.298   2.898   6.390 -0.3978 -0.4118  0.2985
 7403SOL     OW29383   1.525   4.333   2.167  0.1968  0.2669  0.2976
 7403SOL    HW229384   1.470   4.295   2.236 -0.1401  0.2592  0.0312
 7403SOL    HW329385   1.468   4.398   2.125 -0.8585 -2.0628 -2.2291
 7403SOL    MW429386   1.510   4.337   2.171 -0.9640  0.2667 -0.2757
 7404SOL     OW29387   2.823   3.508   4.137 -0.3199 -0.3799  0.2695
 7404SOL    HW229388   2.801   3.601   4.134 -1.0701 -0.5596 -1.5926
 7404SOL    HW329389   2.908   3.501   4.093  0.0985 -0.5066  1.0777
 7404SOL    MW429390   2.831   3.519   4.131 -0.0304  0.1475  0.1831
 7405SOL     OW29391   4.437   4.499   4.383  0.5227  0.1731  0.0144
 7405SOL    HW229392   4.441   4.563   4.454  0.3801  0.0113  0.1690
 7405SOL    HW329393   4.445   4.551   4.303  3.5571  0.1733  0.1659
 7405SOL    MW429394   4.439   4.514   4.382  0.4344  0.3440  0.9562
 7406SOL     OW29395   4.861   1.412   3.515  0.3058 -0.0387  0.0919
 7406SOL    HW229396   4.850   1.386   3.424  1.5867 -1.1418  0.2262
 7406SOL    HW329397   4.800   1.356   3.564  0.8468 -0.6488  0.0751
 7406SOL    MW429398   4.851   1.402   3.509 -0.0784 -0.4651 -0.0290
 7407SOL     OW29399   1.415   3.686   5.782  0.0810 -0.6078  0.1482
 7407SOL    HW229400   1.418   3.719   5.692 -0.8036 -0.3088  0.2149
 7407SOL    HW329401   1.445   3.760   5.835  0.1500 -0.6243  0.1317
 7407SOL    MW429402   1.419   3.700   5.777  0.3168  0.3616 -0.6676
 7408SOL     OW29403   3.022   5.394   0.989 -0.3467  0.3169  0.1558
 7408SOL    HW229404   3.088   5.362   1.050  1.2097  0.5889 -1.3158
 7408SOL    HW329405   3.022   5.489   1.000 -0.3159  0.3382 -0.0237
 7408SOL    MW429406   3.030   5.402   0.999  0.1516  0.5172  0.2872
 7409SOL     OW29407   1.163   0.500   2.090 -0.1372  0.3743 -0.8085
 7409SOL    HW229408   1.145   0.406   2.082 -0.2524  0.3225 -0.0341
 7409SOL    HW329409   1.254   0.504   2.118 -0.4241  0.4466  0.1519
 7409SOL    MW429410   1.172   0.488   2.093  0.0128 -1.0977  0.8585
 7410SOL     OW29411   1.518   0.245   0.886 -0.0320 -0.5428 -0.2647
 7410SOL    HW229412   1.596   0.190   0.879 -0.9592 -1.7474 -2.0308
 7410SOL    HW329413   1.548   0.332   0.859  0.6836 -1.0462 -1.1893
 7410SOL    MW429414   1.533   0.249   0.881 -0.4271  0.0636 -0.1970
 7411SOL     OW29415   3.426   0.636   2.807 -0.5184 -0.1753  0.0280
 7411SOL    HW229416   3.489   0.705   2.825  0.2754 -0.1417 -2.4883
 7411SOL    HW329417   3.361   0.644   2.877  1.7678  0.3090  2.2515
 7411SOL    MW429418   3.425   0.646   2.818  0.0674 -0.2154  0.0592
 7412SOL     OW29419   1.973   4.140   4.398 -0.3732 -0.0085  1.2522
 7412SOL    HW229420   2.000   4.231   4.393  0.5640 -0.3352  0.1166
 7412SOL    HW329421   1.881   4.141   4.371  0.1330  0.3820 -0.5573
 7412SOL    MW429422   1.964   4.152   4.394  0.3691 -0.0026  0.7322
 7413SOL     OW29423   2.286   3.519   4.547  0.9786  0.5571 -0.2898
 7413SOL    HW229424   2.245   3.478   4.471  0.9570  1.8931 -1.0264
 7413SOL    HW329425   2.300   3.447   4.609 -0.2801 -0.3143 -0.9882
 7413SOL    MW429426   2.283   3.504   4.545  0.0644 -0.1128  0.3257
 7414SOL     OW29427   6.273   4.751   5.981 -0.0943 -0.1352 -0.0482
 7414SOL    HW229428   6.204   4.713   5.927 -0.3431 -1.8191  1.3812
 7414SOL    HW329429   6.343   4.772   5.919 -1.1899 -0.0009 -1.2843
 7414SOL    MW429430   6.273   4.749   5.966  1.0900 -0.6159  0.8550
 7415SOL     OW29431   5.871   2.650   2.225 -0.1153  0.4546 -0.3868
 7415SOL    HW229432   5.928   2.705   2.279 -1.0431  0.5759  0.4948
 7415SOL    HW329433   5.923   2.632   2.147  1.1977  0.4219  0.4565
 7415SOL    MW429434   5.886   2.655   2.222 -0.1166 -0.0527  0.1612
 7416SOL     OW29435   2.098   6.105   5.526  0.2020  0.5613  0.0098
 7416SOL    HW229436   2.129   6.178   5.473 -0.4652  0.3494 -0.6954
 7416SOL    HW329437   2.003   6.117   5.530  0.2831  0.9440  1.7404
 7416SOL    MW429438   2.089   6.116   5.520  0.0047  0.5011 -0.1849
 7417SOL     OW29439   3.967   0.501   3.353 -0.4274  0.0421  1.1007
 7417SOL    HW229440   3.953   0.581   3.303 -1.2315 -0.6846  0.1118
 7417SOL    HW329441   4.047   0.464   3.317 -0.2857  0.1934  1.2632
 7417SOL    MW429442   3.976   0.507   3.341 -0.4521  0.7822 -0.6540
 7418SOL     OW29443   0.220   3.698   6.017  0.2940  0.1636 -0.5386
 7418SOL    HW229444   0.283   3.632   6.049  0.1275  0.4242  0.3489
 7418SOL    HW329445   0.252   3.781   6.051  1.2516  0.7837 -2.7493
 7418SOL    MW429446   0.232   3.700   6.025  0.8059  0.5392 -0.1959
 7419SOL     OW29447   2.919   1.840   0.119  0.1548 -0.1999  0.4784
 7419SOL    HW229448   2.863   1.777   0.164 -0.5409  1.1905  1.6387
 7419SOL    HW329449   2.991   1.856   0.180 -0.1380  0.7754  0.5809
 7419SOL    MW429450   2.921   1.834   0.133  0.4473  0.3905 -0.2741
 7420SOL     OW29451   3.479   0.925   5.471 -0.5175 -0.2461  0.5239
 7420SOL    HW229452   3.412   0.929   5.402  0.5736 -0.1583 -0.5746
 7420SOL    HW329453   3.480   0.834   5.500 -0.5298 -0.4371 -0.0683
 7420SOL    MW429454   3.471   0.914   5.466 -0.4873 -0.3593 -0.4380
 7421SOL     OW29455   4.875   4.308   1.854  0.5466  0.2099 -0.7765
 7421SOL    HW229456   4.903   4.241   1.791  0.4216 -2.3173  1.6922
 7421SOL    HW329457   4.797   4.271   1.895  1.1429  1.3020  1.5128
 7421SOL    MW429458   4.868   4.294   1.851 -0.8846  0.2246  0.2238
 7422SOL     OW29459   5.579   2.091   3.776 -0.0880 -0.4124 -0.3596
 7422SOL    HW229460   5.610   2.007   3.744  1.1081  0.0585 -0.4712
 7422SOL    HW329461   5.621   2.156   3.719  0.0929  0.3153  0.5798
 7422SOL    MW429462   5.588   2.089   3.764 -0.3969 -0.0410  0.5022
 7423SOL     OW29463   0.738   5.411   0.832 -0.5393  0.1542 -0.2411
 7423SOL    HW229464   0.655   5.381   0.793 -0.7562  2.6781 -1.9664
 7423SOL    HW329465   0.711   5.469   0.903 -0.3179  1.3765 -1.1236
 7423SOL    MW429466   0.723   5.415   0.836 -0.6578  0.0176  0.1578
 7424SOL     OW29467   5.926   0.194   3.637  0.6477  0.0291  0.4807
 7424SOL    HW229468   5.847   0.177   3.586  1.0933  0.0351 -0.2176
 7424SOL    HW329469   5.995   0.146   3.592  1.0806  0.1709  0.9827
 7424SOL    MW429470   5.924   0.186   3.625 -0.4562 -0.2623  0.4255
 7425SOL     OW29471   5.374   4.289   4.748  0.2808 -0.5170  0.6193
 7425SOL    HW229472   5.297   4.251   4.704 -0.2370 -2.0343  2.6902
 7425SOL    HW329473   5.351   4.381   4.759 -0.5193 -0.5852 -0.2954
 7425SOL    MW429474   5.361   4.296   4.743 -0.3408 -0.3134 -0.9547
 7426SOL     OW29475   0.322   4.895   1.632 -0.1975 -0.0017 -0.2232
 7426SOL    HW229476   0.280   4.838   1.567 -0.6007 -0.3039  0.2941
 7426SOL    HW329477   0.321   4.844   1.713  0.4762  0.2973 -0.0175
 7426SOL    MW429478   0.316   4.881   1.634  0.5311  1.1184  0.3385
 7427SOL     OW29479   3.929   0.066   1.908 -0.9128  0.2370 -0.3990
 7427SOL    HW229480   3.895   0.083   1.996 -1.1648 -0.3788 -0.3716
 7427SOL    HW329481   3.862   0.101   1.849  0.0379  2.2158 -0.3744
 7427SOL    MW429482   3.916   0.072   1.912 -0.4821  0.4117 -0.0627
 7428SOL     OW29483   0.520   2.561   1.119 -0.2932  0.0870 -0.2655
 7428SOL    HW229484   0.434   2.603   1.120 -0.4475 -0.2048  0.9845
 7428SOL    HW329485   0.581   2.632   1.101 -0.7439  0.4214 -0.4967
 7428SOL    MW429486   0.517   2.576   1.117 -0.2296 -0.0707  0.2647
 7429SOL     OW29487   3.921   3.159   5.130  0.4295  0.4039  0.4164
 7429SOL    HW229488   3.999   3.167   5.076  1.3950 -2.3333  1.2294
 7429SOL    HW329489   3.854   3.126   5.071  0.4617  0.8015  0.1547
 7429SOL    MW429490   3.923   3.156   5.115  0.3214  0.2498 -0.4318
 7430SOL     OW29491   5.115   3.566   3.532  0.1365  0.5160  0.4826
 7430SOL    HW229492   5.185   3.544   3.594 -0.7697  0.5168  1.5447
 7430SOL    HW329493   5.157   3.565   3.446  1.2710 -0.2020  1.0274
 7430SOL    MW429494   5.129   3.563   3.529 -0.4698 -0.1979 -0.4485
 7431SOL     OW29495   3.191   1.309   6.420 -0.3131 -0.1032  0.1032
 7431SOL    HW229496   3.230   1.290   6.335 -1.4853  0.3118 -0.5491
 7431SOL    HW329497   3.115   1.364   6.400  0.0039  0.9118  1.5078
 7431SOL    MW429498   3.186   1.314   6.406 -0.6610 -0.0999  0.0997
 7432SOL     OW29499   5.868   5.615   3.911 -0.5563  0.4156  0.1293
 7432SOL    HW229500   5.781   5.618   3.950 -0.2532  0.2870  0.8340
 7432SOL    HW329501   5.920   5.676   3.963  0.7126 -2.1701  2.1393
 7432SOL    MW429502   5.864   5.623   3.923 -0.1876  0.1516 -0.4698
 7433SOL     OW29503   3.790   4.808   3.366 -0.7159 -0.8105  0.3206
 7433SOL    HW229504   3.800   4.847   3.452 -1.2926 -0.2670  0.1492
 7433SOL    HW329505   3.699   4.826   3.342 -1.0501 -2.4110  0.3027
 7433SOL    MW429506   3.780   4.816   3.374 -0.0594  0.1643  0.5501
 7434SOL     OW29507   4.847   1.152   0.438  0.4049  0.1424 -0.8214
 7434SOL    HW229508   4.803   1.107   0.366  1.2167 -1.0672 -0.5744
 7434SOL    HW329509   4.866   1.083   0.502  1.6255  0.8387 -0.4069
 7434SOL    MW429510   4.844   1.137   0.437  0.1192 -0.3787  0.1095
 7435SOL     OW29511   4.327   0.289   5.246  0.1331  0.1049  0.6434
 7435SOL    HW229512   4.245   0.256   5.210 -0.4329  0.0299  1.9440
 7435SOL    HW329513   4.387   0.215   5.240 -0.3260 -0.3042  1.0053
 7435SOL    MW429514   4.324   0.275   5.240 -0.4421  0.3487  0.1386
 7436SOL     OW29515   1.108   5.782   2.700  0.3667 -0.7025 -0.1465
 7436SOL    HW229516   1.163   5.851   2.736 -0.2287  0.0380 -0.6316
 7436SOL    HW329517   1.018   5.813   2.714  0.1018 -1.2302 -0.6418
 7436SOL    MW429518   1.103   5.795   2.707 -0.3181 -0.4633 -0.3593
 7437SOL     OW29519   3.814   4.517   4.816  0.0572 -0.4930  0.4258
 7437SOL    HW229520   3.731   4.556   4.842  1.2422  1.8985  0.8728
 7437SOL    HW329521   3.816   4.432   4.861 -2.6955 -1.2746 -0.7138
 7437SOL    MW429522   3.803   4.511   4.826 -0.3252  0.1596 -0.0969
 7438SOL     OW29523   0.064   2.725   2.245 -0.3581 -0.2485 -0.1381
 7438SOL    HW229524   0.048   2.725   2.340 -1.3369 -0.8337 -0.2923
 7438SOL    HW329525   0.133   2.790   2.233  0.8918 -1.2606  1.1627
 7438SOL    MW429526   0.071   2.733   2.256  0.3651  0.1194  0.2787
 7439SOL     OW29527   5.188   0.524   6.086 -0.2981  0.3081  0.4933
 7439SOL    HW229528   5.207   0.540   6.179  1.1363  0.6076  0.1660
 7439SOL    HW329529   5.274   0.515   6.045 -0.7459  3.3714 -1.3970
 7439SOL    MW429530   5.202   0.525   6.093 -0.3887  0.2596 -0.7304
 7440SOL     OW29531   3.899   1.502   6.136 -0.0905 -0.1843  0.3306
 7440SOL    HW229532   3.928   1.583   6.094 -0.5071  0.1459  0.6754
 7440SOL    HW329533   3.980   1.453   6.150  0.0947 -0.1187 -0.4742
 7440SOL    MW429534   3.914   1.506   6.133  0.3182 -0.1237 -0.2494
 7441SOL     OW29535   5.423   2.675   1.863  0.4274  0.1922 -0.1650
 7441SOL    HW229536   5.503   2.673   1.915 -0.4754 -1.0800  1.2409
 7441SOL    HW329537   5.395   2.767   1.866  1.2553  0.4411  0.2099
 7441SOL    MW429538   5.430   2.687   1.870  0.0243  0.0089 -0.7636
 7442SOL     OW29539   0.917   2.698   4.079  0.4590  0.2375 -0.4672
 7442SOL    HW229540   0.925   2.787   4.112  1.2467  0.0273 -0.0499
 7442SOL    HW329541   0.949   2.703   3.989  0.0518  0.4628 -0.6017
 7442SOL    MW429542   0.923   2.710   4.072  0.6085 -0.1946  0.3990
 7443SOL     OW29543   0.812   5.170   0.467 -0.7300  0.0843 -0.2898
 7443SOL    HW229544   0.733   5.116   0.463 -0.7533  0.0898  0.0618
 7443SOL    HW329545   0.846   5.157   0.556  1.8273 -2.9386 -1.5332
 7443SOL    MW429546   0.806   5.161   0.478 -0.1666 -0.5527 -0.1069
 7444SOL     OW29547   4.554   1.664   5.343  0.0616  0.2864  0.3807
 7444SOL    HW229548   4.527   1.640   5.432  0.1907  2.2524  0.9995
 7444SOL    HW329549   4.648   1.646   5.342 -0.0236 -0.1812  0.4749
 7444SOL    MW429550   4.563   1.658   5.355 -0.5396  0.4452 -0.0518
 7445SOL     OW29551   2.426   5.597   4.687 -0.1374 -0.3202 -0.4075
 7445SOL    HW229552   2.427   5.692   4.676 -0.9766 -0.2270  0.2263
 7445SOL    HW329553   2.486   5.581   4.761  1.6213 -0.4973 -1.8004
 7445SOL    MW429554   2.434   5.607   4.696 -0.4830  0.7435  0.1102
 7446SOL     OW29555   0.142   0.993   4.318  0.5398  0.2206 -0.7459
 7446SOL    HW229556   0.049   0.975   4.320  0.3668  1.1081  0.0334
 7446SOL    HW329557   0.149   1.089   4.326  1.5420  0.0493  0.9682
 7446SOL    MW429558   0.131   1.004   4.319  0.4694 -0.0377  0.5006
 7447SOL     OW29559   0.464   1.594   5.461 -0.2386 -0.0533  0.0084
 7447SOL    HW229560   0.484   1.529   5.393  1.9630  0.2429  0.3028
 7447SOL    HW329561   0.510   1.562   5.538  1.9018  2.3766 -0.1322
 7447SOL    MW429562   0.472   1.581   5.462 -0.1177  0.4822 -0.5792
 7448SOL     OW29563   2.228   2.621   1.353 -0.5296  0.2513 -0.4405
 7448SOL    HW229564   2.136   2.610   1.330 -0.4213 -2.3677  0.0956
 7448SOL    HW329565   2.245   2.554   1.419  1.9706  0.0865 -1.1210
 7448SOL    MW429566   2.218   2.611   1.359  0.0156 -0.7157 -0.1211
 7449SOL     OW29567   5.119   0.990   5.873  0.1198 -0.2016  0.3943
 7449SOL    HW229568   5.028   1.015   5.880  0.8496  2.1967  2.6451
 7449SOL    HW329569   5.148   1.025   5.788 -1.4899 -3.0570 -1.5060
 7449SOL    MW429570   5.111   0.998   5.863  0.6725  0.5262  0.2053
 7450SOL     OW29571   0.263   6.299   5.647 -0.1818 -0.3844 -0.3166
 7450SOL    HW229572   0.183   6.344   5.673 -1.2709 -1.6201 -1.3407
 7450SOL    HW329573   0.272   6.228   5.710  0.7491  0.4099  0.4633
 7450SOL    MW429574   0.254   6.295   5.659 -0.5302 -0.4067  0.3741
 7451SOL     OW29575   2.899   2.493   2.754  0.1971 -0.0524 -0.6009
 7451SOL    HW229576   2.980   2.482   2.703  0.6629  0.5272 -0.0074
 7451SOL    HW329577   2.892   2.587   2.767  0.5756 -0.2285  1.1428
 7451SOL    MW429578   2.909   2.504   2.749  0.6546 -0.3315 -0.1255
 7452SOL     OW29579   4.180   3.048   0.337 -0.0617 -0.0737 -0.5132
 7452SOL    HW229580   4.167   3.133   0.296  1.2539  1.2826  1.6952
 7452SOL    HW329581   4.271   3.026   0.317  0.3700  0.2652  0.9745
 7452SOL    MW429582   4.190   3.056   0.329 -0.2288 -0.1472  0.3186
 7453SOL     OW29583   4.468   1.041   6.211  0.3261 -0.4743  0.3581
 7453SOL    HW229584   4.521   1.107   6.256 -0.5006  0.6498 -0.2480
 7453SOL    HW329585   4.454   0.973   6.276  2.5194 -0.8408  0.5287
 7453SOL    MW429586   4.473   1.041   6.226  0.1170  0.1789 -0.0449
 7454SOL     OW29587   4.703   6.233   2.468  0.0277  0.0827 -0.6005
 7454SOL    HW229588   4.729   6.195   2.551  0.1345  0.1767 -0.5914
 7454SOL    HW329589   4.777   6.287   2.441 -0.1711  0.3869 -0.5496
 7454SOL    MW429590   4.716   6.235   2.475 -0.2075 -0.4314  0.4603
 7455SOL     OW29591   3.085   5.251   4.693  0.3391 -0.0117 -0.3493
 7455SOL    HW229592   3.127   5.165   4.697  0.5605  0.1427  1.4784
 7455SOL    HW329593   2.992   5.233   4.706  0.5939  0.1215  2.2264
 7455SOL    MW429594   3.078   5.237   4.695 -0.1008  0.5935  0.0517
 7456SOL     OW29595   5.124   2.628   2.476 -0.0273 -0.3489 -0.0596
 7456SOL    HW229596   5.091   2.553   2.525 -1.1597 -1.4605 -2.3818
 7456SOL    HW329597   5.059   2.697   2.492  0.2900 -0.2831  0.9915
 7456SOL    MW429598   5.111   2.627   2.484 -0.5786  0.2617  0.0293
 7457SOL     OW29599   3.494   3.459   4.712 -0.2976  0.2212 -0.2007
 7457SOL    HW229600   3.506   3.368   4.740  1.8281  0.7520  0.8875
 7457SOL    HW329601   3.521   3.460   4.620  0.1040 -0.1853 -0.0896
 7457SOL    MW429602   3.499   3.447   4.704  0.2901 -0.4982  0.0537
 7458SOL     OW29603   1.155   0.410   2.766 -0.3773 -0.2223  0.1987
 7458SOL    HW229604   1.183   0.319   2.760  0.2374  0.0088 -0.7461
 7458SOL    HW329605   1.108   0.416   2.849  1.0907 -0.9794  1.1086
 7458SOL    MW429606   1.152   0.399   2.776  0.2209  0.6547  0.0439
 7459SOL     OW29607   2.564   0.376   2.253  0.0792 -0.0245  0.3907
 7459SOL    HW229608   2.529   0.384   2.342  2.2373  1.3792  1.1927
 7459SOL    HW329609   2.556   0.464   2.216 -0.9615 -0.6274 -0.9259
 7459SOL    MW429610   2.558   0.389   2.260 -0.6277 -0.2450  0.0053
 7460SOL     OW29611   0.876   1.861   0.724  0.2213 -0.3401  0.4371
 7460SOL    HW229612   0.897   1.772   0.750  0.8451 -0.2826  0.1257
 7460SOL    HW329613   0.959   1.899   0.696 -0.1786  0.0803 -0.2032
 7460SOL    MW429614   0.889   1.855   0.724  0.0642  0.2021  0.0996
 7461SOL     OW29615   3.875   4.648   5.263 -0.3752 -0.1079 -0.2708
 7461SOL    HW229616   3.817   4.713   5.301 -0.9187 -0.2594 -0.8169
 7461SOL    HW329617   3.891   4.679   5.174 -0.1627 -0.4168 -0.3440
 7461SOL    MW429618   3.869   4.661   5.256  0.2058  0.2279  0.3468
 7462SOL     OW29619   5.882   2.920   1.513 -0.3594  0.1593 -0.3333
 7462SOL    HW229620   5.970   2.888   1.532 -0.0651  1.2683  0.2754
 7462SOL    HW329621   5.824   2.847   1.534  0.4261 -0.6904 -1.0495
 7462SOL    MW429622   5.886   2.906   1.518  0.0362  0.3050  0.1804
 7463SOL     OW29623   4.333   4.213   5.716  0.0119  0.7903 -0.0046
 7463SOL    HW229624   4.250   4.260   5.722  0.1651  1.1656 -0.7060
 7463SOL    HW329625   4.348   4.203   5.622 -0.4526 -1.4443  0.1011
 7463SOL    MW429626   4.324   4.218   5.704 -0.8159  0.6462  0.5169
 7464SOL     OW29627   2.486   4.719   3.038 -0.1854  0.2861 -0.3416
 7464SOL    HW229628   2.445   4.801   3.065  1.8662  0.8750  1.2557
 7464SOL    HW329629   2.563   4.745   2.988  1.0704 -0.5629  1.0463
 7464SOL    MW429630   2.491   4.733   3.035 -0.5771  0.7398  0.0510
 7465SOL     OW29631   1.648   1.074   1.557 -0.1353  0.6039  0.6924
 7465SOL    HW229632   1.594   1.153   1.564 -0.2978  0.5180  0.3999
 7465SOL    HW329633   1.690   1.082   1.472 -0.8843 -0.0943  0.2495
 7465SOL    MW429634   1.647   1.086   1.547 -0.1197 -0.2595  0.0549
 7466SOL     OW29635   0.073   5.884   0.124 -0.2583 -0.2214  0.0414
 7466SOL    HW229636   0.110   5.819   0.063  2.2673  0.6019  0.5474
 7466SOL    HW329637  -0.016   5.855   0.140 -1.1278 -0.4965 -4.0646
 7466SOL    MW429638   0.066   5.872   0.118 -0.0175 -0.5966  0.3885
 7467SOL     OW29639   6.413   5.125   0.987 -0.3399  0.3220 -0.1156
 7467SOL    HW229640   6.333   5.176   0.994 -1.5808 -1.6158  0.7647
 7467SOL    HW329641   6.470   5.160   1.056 -0.9868  0.8025  0.1792
 7467SOL    MW429642   6.410   5.136   0.997  0.0499  0.2010 -0.1446
 7468SOL     OW29643   1.990   1.982   1.244  0.2626  0.1242  0.3720
 7468SOL    HW229644   1.963   1.995   1.153  2.7935  1.0848 -0.3349
 7468SOL    HW329645   2.048   2.056   1.262  1.9503 -1.4537  1.8563
 7468SOL    MW429646   1.994   1.993   1.234  0.3354 -0.0933 -0.2803
 7469SOL     OW29647   4.062   4.157   0.939  0.4240 -0.1530  0.1148
 7469SOL    HW229648   4.126   4.180   0.873  0.5560  1.5147  0.7792
 7469SOL    HW329649   4.113   4.117   1.010  0.5485 -0.0976  0.0561
 7469SOL    MW429650   4.077   4.155   0.940 -0.4304 -0.1661 -0.1011
 7470SOL     OW29651   2.485   5.394   4.051 -0.4994  0.6494  0.0003
 7470SOL    HW229652   2.495   5.329   3.982 -0.4665  0.5354  0.1128
 7470SOL    HW329653   2.507   5.477   4.009  0.6045  0.4459  0.1613
 7470SOL    MW429654   2.489   5.396   4.036 -0.7947 -0.1234  0.1058
 7471SOL     OW29655   5.198   2.391   0.747  0.0726 -0.0410  0.4582
 7471SOL    HW229656   5.168   2.320   0.690  0.0341 -0.6280  1.2028
 7471SOL    HW329657   5.125   2.408   0.806 -0.7657  2.0927 -1.0471
 7471SOL    MW429658   5.185   2.384   0.747 -0.3612 -0.1604  0.6646
 7472SOL     OW29659   3.188   1.423   5.713  0.4323 -0.6113  0.7360
 7472SOL    HW229660   3.267   1.462   5.676  0.3422 -1.9354 -0.9774
 7472SOL    HW329661   3.216   1.386   5.797  1.9379 -2.0238 -0.3408
 7472SOL    MW429662   3.202   1.423   5.719 -0.5550 -0.0915 -0.2374
 7473SOL     OW29663   1.414   1.991   5.105  0.1923 -0.6827 -0.3306
 7473SOL    HW229664   1.377   2.031   5.184 -1.2726  0.1488 -1.3908
 7473SOL    HW329665   1.508   1.990   5.120 -0.0700 -0.7532  1.5115
 7473SOL    MW429666   1.421   1.996   5.117 -0.5199 -0.4678  0.4331
 7474SOL     OW29667   1.720   4.522   6.101  0.4911 -0.1333  0.2543
 7474SOL    HW229668   1.696   4.451   6.042  2.6051 -0.9160  0.2517
 7474SOL    HW329669   1.646   4.530   6.161 -0.6902 -0.8840 -1.0481
 7474SOL    MW429670   1.708   4.514   6.101 -0.2227 -0.4973 -0.2896
 7475SOL     OW29671   6.089   0.977   5.946  0.0602  0.5032  0.5603
 7475SOL    HW229672   6.136   0.922   6.009  2.2457  0.2940 -1.1318
 7475SOL    HW329673   6.119   1.066   5.964  0.9435  0.4044 -0.3451
 7475SOL    MW429674   6.099   0.982   5.957  0.1147  0.8535  0.0863
 7476SOL     OW29675   5.281   0.385   2.620 -0.3412 -0.1589 -0.6996
 7476SOL    HW229676   5.225   0.357   2.547 -0.0115 -0.6462 -0.7640
 7476SOL    HW329677   5.366   0.347   2.601 -0.2819 -0.3809  0.0087
 7476SOL    MW429678   5.284   0.376   2.608  0.2498 -0.0856  0.4749
 7477SOL     OW29679   3.592   4.938   2.626  0.3368  0.4769 -0.2399
 7477SOL    HW229680   3.625   5.023   2.655  1.0199  0.4220 -0.8265
 7477SOL    HW329681   3.657   4.875   2.656  0.3303  0.2709 -0.6514
 7477SOL    MW429682   3.605   4.941   2.634  0.0253  0.4298 -0.0260
 7478SOL     OW29683   2.681   5.909   2.958  0.0310  0.4425 -0.4744
 7478SOL    HW229684   2.675   5.817   2.984  0.3230  0.4357 -0.4271
 7478SOL    HW329685   2.593   5.943   2.972  0.2785  0.5631  1.0399
 7478SOL    MW429686   2.669   5.901   2.964 -0.4770  0.2242  0.4310
 7479SOL     OW29687   2.248   0.297   3.367 -0.2033 -0.5606  0.2876
 7479SOL    HW229688   2.318   0.266   3.310  1.7682  1.4277  1.4554
 7479SOL    HW329689   2.241   0.230   3.435  0.5412 -0.8169  0.1247
 7479SOL    MW429690   2.256   0.284   3.368  0.6470 -0.6517 -0.2975
 7480SOL     OW29691   0.359   0.847   1.708  0.3030  0.2831 -0.1509
 7480SOL    HW229692   0.272   0.823   1.676  0.3074 -1.0484  0.7551
 7480SOL    HW329693   0.375   0.934   1.672 -0.8629  0.0157 -1.3794
 7480SOL    MW429694   0.350   0.855   1.699 -0.0529 -0.0464  0.1708
 7481SOL     OW29695   5.820   0.479   0.782  0.0192  0.0153 -0.1386
 7481SOL    HW229696   5.884   0.528   0.730 -0.3150 -2.2798 -2.9313
 7481SOL    HW329697   5.873   0.424   0.840  0.6165 -1.1658 -1.7553
 7481SOL    MW429698   5.836   0.478   0.783  0.1166  0.2978 -0.2499
 7482SOL     OW29699   6.101   4.615   0.156 -0.4079  0.0427  0.1138
 7482SOL    HW229700   6.161   4.555   0.112 -0.0292  0.1303  0.5054
 7482SOL    HW329701   6.058   4.662   0.085  1.7487  1.7395 -0.1711
 7482SOL    MW429702   6.103   4.613   0.141  0.2242  0.1269  0.3904
 7483SOL     OW29703   1.364   0.702   0.815  0.3056  0.1355  0.2060
 7483SOL    HW229704   1.276   0.665   0.822  0.2709  0.1709 -0.0283
 7483SOL    HW329705   1.373   0.757   0.893  0.2716 -0.1833  0.4329
 7483SOL    MW429706   1.353   0.705   0.826 -0.0478 -0.4197  0.1066
 7484SOL     OW29707   2.300   4.330   4.086  0.2265 -0.3231 -0.2067
 7484SOL    HW229708   2.354   4.326   4.007 -0.9907 -0.4751 -1.0591
 7484SOL    HW329709   2.214   4.298   4.058 -0.4629  0.4236  0.9783
 7484SOL    MW429710   2.296   4.325   4.072  0.6336  0.8394 -0.1626
 7485SOL     OW29711   3.931   1.485   2.654  0.0997  0.5955  0.3211
 7485SOL    HW229712   3.994   1.456   2.720  1.7106  0.5629 -1.1559
 7485SOL    HW329713   3.979   1.548   2.600 -0.5234 -0.6950 -1.9019
 7485SOL    MW429714   3.946   1.489   2.655 -0.1360 -0.7391 -0.2304
 7486SOL     OW29715   1.761   1.687   3.626  0.6344  0.1464 -0.2960
 7486SOL    HW229716   1.690   1.712   3.685  0.2842 -0.7367 -0.3249
 7486SOL    HW329717   1.718   1.635   3.558  1.5539 -2.1951  0.7914
 7486SOL    MW429718   1.746   1.683   3.625 -0.1021 -0.0433  0.1560
 7487SOL     OW29719   4.771   2.282   2.542 -0.1057 -1.0395 -0.3098
 7487SOL    HW229720   4.690   2.298   2.493 -0.4051  1.3475  0.8534
 7487SOL    HW329721   4.793   2.367   2.581  2.0850 -2.0172  0.7393
 7487SOL    MW429722   4.763   2.295   2.540  0.1626 -0.5274  0.0699
 7488SOL     OW29723   4.386   3.759   2.368  0.1774 -0.0039  0.2017
 7488SOL    HW229724   4.367   3.666   2.354 -0.4887  0.2731 -0.8263
 7488SOL    HW329725   4.320   3.787   2.432 -0.5402  0.0759 -0.5495
 7488SOL    MW429726   4.375   3.750   2.374  0.7580  0.1540 -0.9376
 7489SOL     OW29727   6.430   4.160   6.146 -0.2630 -0.1012  1.1458
 7489SOL    HW229728   6.424   4.159   6.050  1.1421  0.6162  1.0271
 7489SOL    HW329729   6.524   4.157   6.164 -0.5311 -1.9594  2.5479
 7489SOL    MW429730   6.442   4.159   6.136 -0.1413  0.3676 -0.6290
 7490SOL     OW29731   4.339   3.578   4.519  0.4502  0.2538  0.5824
 7490SOL    HW229732   4.382   3.635   4.583 -0.5157 -0.2385  1.6956
 7490SOL    HW329733   4.407   3.515   4.494  1.0011  0.7948  0.6777
 7490SOL    MW429734   4.354   3.577   4.524  0.2813  0.8452  0.4257
 7491SOL     OW29735   5.777   0.076   1.131  0.2828 -0.4805  0.0550
 7491SOL    HW229736   5.725   0.146   1.091  0.0243 -1.4287 -1.3260
 7491SOL    HW329737   5.857   0.120   1.160  0.9812  0.1174 -2.4933
 7491SOL    MW429738   5.781   0.091   1.130  0.0941  0.1810 -0.2502
 7492SOL     OW29739   1.234   0.824   6.323  0.1199  0.0618 -0.2414
 7492SOL    HW229740   1.156   0.776   6.349 -0.1824  1.6172  2.0157
 7492SOL    HW329741   1.304   0.758   6.323 -1.0741 -1.2649 -1.9406
 7492SOL    MW429742   1.233   0.809   6.326 -0.3477  0.1219  0.4785
 7493SOL     OW29743   0.839   2.003   4.433 -0.1627 -0.2805  0.0275
 7493SOL    HW229744   0.844   2.095   4.410  1.1717  0.0178  1.3647
 7493SOL    HW329745   0.872   1.957   4.355  1.3806  0.5237  0.1604
 7493SOL    MW429746   0.844   2.009   4.419  0.0497  0.4449 -0.8190
 7494SOL     OW29747   1.260   3.795   2.887 -0.5138 -0.4893 -0.5193
 7494SOL    HW229748   1.233   3.716   2.840 -0.5226 -1.1719  0.5896
 7494SOL    HW329749   1.178   3.831   2.922 -0.5871  0.3709 -1.5315
 7494SOL    MW429750   1.245   3.789   2.885 -0.3302 -0.2020 -0.2241
 7495SOL     OW29751   5.693   5.138   2.394  0.3877 -0.2290  0.1755
 7495SOL    HW229752   5.762   5.080   2.363  0.9767  0.3442  0.4025
 7495SOL    HW329753   5.626   5.135   2.325  0.8061 -0.4885 -0.2212
 7495SOL    MW429754   5.693   5.130   2.381 -0.1591 -0.1154 -0.1305
 7496SOL     OW29755   0.523   3.181   6.112  0.2451 -0.0336 -0.3444
 7496SOL    HW229756   0.478   3.140   6.038  0.7810  0.8341 -1.1670
 7496SOL    HW329757   0.459   3.175   6.184  0.4428 -2.6425 -0.2733
 7496SOL    MW429758   0.508   3.175   6.112  0.1188  0.3701 -0.1358
 7497SOL     OW29759   1.430   4.299   2.418  0.1152 -0.0963 -0.1007
 7497SOL    HW229760   1.448   4.390   2.396 -1.4497  0.2460 -0.0596
 7497SOL    HW329761   1.516   4.262   2.438  0.9300  1.0329 -1.3308
 7497SOL    MW429762   1.444   4.306   2.417 -0.1832  0.5330 -0.0809
 7498SOL     OW29763   5.302   0.965   2.288 -0.6760  0.2469 -0.2372
 7498SOL    HW229764   5.393   0.985   2.264 -1.0536  1.5817 -0.5942
 7498SOL    HW329765   5.257   0.957   2.205 -1.1746  0.9960 -0.0470
 7498SOL    MW429766   5.308   0.966   2.274  0.0582  0.4018  0.6749
 7499SOL     OW29767   1.354   3.266   1.347  0.1417 -0.0465  0.7178
 7499SOL    HW229768   1.429   3.288   1.402  1.5001  0.6278 -1.2548
 7499SOL    HW329769   1.347   3.340   1.287  0.0644 -1.5941 -1.3008
 7499SOL    MW429770   1.363   3.279   1.346 -0.4776 -0.6116 -0.1880
 7500SOL     OW29771   3.989   6.364   3.457 -0.1551 -0.1749 -0.1219
 7500SOL    HW229772   3.950   6.278   3.470 -0.0458 -0.0629  1.1282
 7500SOL    HW329773   3.990   6.403   3.545  1.3356  0.4359 -0.3854
 7500SOL    MW429774   3.984   6.358   3.471  0.5180  0.2311 -0.1456
 7501SOL     OW29775   3.754   3.348   5.839  0.3237 -0.3839  0.1032
 7501SOL    HW229776   3.713   3.262   5.838  0.7957 -0.6190  0.6730
 7501SOL    HW329777   3.689   3.406   5.880  0.4408 -0.6960  0.7386
 7501SOL    MW429778   3.740   3.345   5.844 -0.0816  0.2860 -0.2268
 7502SOL     OW29779   4.878   3.388   5.742  0.0961 -0.1495  0.4802
 7502SOL    HW229780   4.965   3.375   5.705  0.0566 -1.0526  0.6882
 7502SOL    HW329781   4.826   3.423   5.670 -0.3387 -3.1225 -0.7945
 7502SOL    MW429782   4.883   3.391   5.728  0.2431 -0.1270 -0.4583
 7503SOL     OW29783   5.529   1.127   5.820 -0.4898  0.3644  0.0770
 7503SOL    HW229784   5.616   1.158   5.847 -0.4171 -0.2782  0.5971
 7503SOL    HW329785   5.474   1.142   5.896 -0.3578 -1.1506  0.5140
 7503SOL    MW429786   5.534   1.133   5.834 -0.2772 -0.0909  1.0025
 7504SOL     OW29787   1.291   2.112   4.381 -0.8156 -0.1866  0.0976
 7504SOL    HW229788   1.243   2.148   4.306 -0.6207 -0.9977 -0.4267
 7504SOL    HW329789   1.383   2.133   4.363 -0.7578 -0.4720  0.0485
 7504SOL    MW429790   1.297   2.119   4.368 -0.4015  0.2854  0.0662
 7505SOL     OW29791   5.011   4.918   1.756 -0.1948  0.6172 -0.5362
 7505SOL    HW229792   5.079   4.863   1.717  0.3707 -0.3054  1.5864
 7505SOL    HW329793   5.023   5.004   1.716  1.3133  0.1130 -1.2225
 7505SOL    MW429794   5.021   4.922   1.745 -0.5062 -0.3053  0.0780
 7506SOL     OW29795   2.726   0.226   4.720 -0.1050  0.9440 -0.5190
 7506SOL    HW229796   2.704   0.138   4.752 -0.4347  0.8139 -1.0854
 7506SOL    HW329797   2.808   0.214   4.673  0.3673  1.1306  0.2434
 7506SOL    MW429798   2.734   0.212   4.718 -0.0918 -0.2241 -0.6595
 7507SOL     OW29799   4.820   2.424   3.019  0.0418 -0.0476 -0.2169
 7507SOL    HW229800   4.865   2.399   2.938  0.6776 -0.2671  0.2046
 7507SOL    HW329801   4.866   2.377   3.088  0.0910  0.8613  0.3816
 7507SOL    MW429802   4.832   2.415   3.017 -0.4214 -0.1285 -0.0318
 7508SOL     OW29803   0.748   5.689   3.953 -0.2955  0.4266  0.1691
 7508SOL    HW229804   0.804   5.717   3.881 -1.2308  2.0218  0.0291
 7508SOL    HW329805   0.775   5.599   3.971  0.7641  0.4137 -1.3699
 7508SOL    MW429806   0.759   5.680   3.946  0.6803 -0.3671  0.6856
 7509SOL     OW29807   5.730   3.360   4.312 -0.1061  0.0016 -0.3984
 7509SOL    HW229808   5.640   3.389   4.293 -1.1957 -1.2260  2.2319
 7509SOL    HW329809   5.768   3.432   4.362 -0.3445 -0.2574  0.1657
 7509SOL    MW429810   5.723   3.373   4.316  0.6851 -0.4468  0.0022
 7510SOL     OW29811   0.338   3.117   1.572 -0.3033  0.0595  0.5599
 7510SOL    HW229812   0.327   3.097   1.479 -0.8489  1.3246  0.3359
 7510SOL    HW329813   0.261   3.080   1.614  0.1296 -0.8505  0.5794
 7510SOL    MW429814   0.327   3.109   1.565 -0.4162  0.3246  0.0903
 7511SOL     OW29815   3.254   2.838   4.740 -0.1955 -0.7502  0.0383
 7511SOL    HW229816   3.249   2.889   4.659  0.4958  0.2852  0.6173
 7511SOL    HW329817   3.342   2.799   4.738  0.2754  0.2338  0.8182
 7511SOL    MW429818   3.265   2.839   4.729  0.3781  0.2925  0.3351
 7512SOL     OW29819   2.718   4.031   3.314 -0.0893 -0.1698 -0.4360
 7512SOL    HW229820   2.757   4.049   3.228 -0.7748 -1.7428 -1.1151
 7512SOL    HW329821   2.745   3.942   3.334  0.5565  0.3766  1.2935
 7512SOL    MW429822   2.727   4.022   3.305 -0.1097  0.0286 -0.0482
 7513SOL     OW29823   1.457   0.945   1.399 -0.1521  0.7457  0.0329
 7513SOL    HW229824   1.402   0.885   1.450  1.5529 -1.6006 -0.7215
 7513SOL    HW329825   1.516   0.984   1.463  0.7735 -0.8093  0.1874
 7513SOL    MW429826   1.457   0.942   1.414  0.3472 -0.0228 -0.1433
 7514SOL     OW29827   1.440   0.620   6.416  0.1224  0.1647 -0.2797
 7514SOL    HW229828   1.431   0.664   6.501  0.4051 -0.6084  0.1610
 7514SOL    HW329829   1.531   0.592   6.413  0.3267  0.8962 -1.2032
 7514SOL    MW429830   1.451   0.622   6.427 -0.0401 -0.3250 -0.6181
 7515SOL     OW29831   0.398   1.748   5.915 -0.2827 -0.1861 -0.2461
 7515SOL    HW229832   0.375   1.656   5.930  1.4350 -0.5818  0.1009
 7515SOL    HW329833   0.358   1.795   5.988  0.6738 -0.9679  0.8068
 7515SOL    MW429834   0.389   1.742   5.926 -0.6509  0.1875 -0.9871
 7516SOL     OW29835   4.511   6.203   0.841 -0.3908 -0.4400 -0.2079
 7516SOL    HW229836   4.566   6.279   0.861  1.0436 -1.5490  0.1664
 7516SOL    HW329837   4.489   6.214   0.749  0.4415  0.0520 -0.3611
 7516SOL    MW429838   4.515   6.215   0.832  0.0925  0.1740  0.1190
 7517SOL     OW29839   5.447   6.041   3.823  0.0448 -0.0333 -0.6419
 7517SOL    HW229840   5.352   6.052   3.829  0.0866 -0.3269  1.3436
 7517SOL    HW329841   5.483   6.123   3.855  0.4709 -0.0373 -1.0982
 7517SOL    MW429842   5.439   6.053   3.828 -0.1153  0.2210 -0.0798
 7518SOL     OW29843   5.973   1.670   5.729  0.2037 -0.8760 -0.4261
 7518SOL    HW229844   5.977   1.652   5.823 -0.2318 -1.0962 -0.4452
 7518SOL    HW329845   6.053   1.719   5.710 -0.5568  0.7326  0.3922
 7518SOL    MW429846   5.984   1.674   5.739 -0.1049  0.6241  0.4777
 7519SOL     OW29847   2.338   6.241   5.371 -0.5359 -0.4042 -0.1161
 7519SOL    HW229848   2.338   6.252   5.276 -0.9390  1.0842  0.0353
 7519SOL    HW329849   2.420   6.280   5.400 -0.6867 -0.3179  0.2005
 7519SOL    MW429850   2.349   6.248   5.363 -0.5815  0.8090 -0.0394
 7520SOL     OW29851   6.277   1.199   5.578  0.8013  0.0439 -0.0403
 7520SOL    HW229852   6.337   1.207   5.651  0.3146 -0.4675  0.4251
 7520SOL    HW329853   6.303   1.118   5.534  0.0356 -0.5442  0.5643
 7520SOL    MW429854   6.288   1.189   5.582 -0.4401 -0.2739  0.0018
 7521SOL     OW29855   5.513   5.241   0.200 -0.6341  0.7188  0.0393
 7521SOL    HW229856   5.501   5.148   0.221  2.2441  0.0199 -0.9823
 7521SOL    HW329857   5.450   5.258   0.130  0.2405 -1.1043 -1.2793
 7521SOL    MW429858   5.503   5.231   0.194  0.4567 -0.3176 -0.6707
 7522SOL     OW29859   4.151   1.044   6.120  0.3304 -0.3942 -0.5338
 7522SOL    HW229860   4.242   1.046   6.149  0.1530  0.8173  0.0090
 7522SOL    HW329861   4.125   0.952   6.127  1.6060 -0.8141 -1.0402
 7522SOL    MW429862   4.159   1.032   6.125  0.2921 -0.5482 -0.5333
 7523SOL     OW29863   1.032   1.607   0.734 -0.2565  0.2518 -0.0140
 7523SOL    HW229864   1.125   1.624   0.749 -0.0675  0.3336 -1.1916
 7523SOL    HW329865   1.030   1.526   0.684 -0.6240  1.7109 -2.5213
 7523SOL    MW429866   1.044   1.598   0.730  0.1351 -0.4990 -0.1352
 7524SOL     OW29867   1.394   3.974   2.221  0.0549 -0.4022 -0.3087
 7524SOL    HW229868   1.489   3.983   2.209 -0.1403  1.4175 -0.7022
 7524SOL    HW329869   1.369   3.907   2.157  1.1186 -1.2764  0.1435
 7524SOL    MW429870   1.403   3.966   2.211 -0.0507 -0.1921 -0.2731
 7525SOL     OW29871   1.654   3.332   1.493  0.0703  0.0896  0.2591
 7525SOL    HW229872   1.676   3.346   1.401 -0.3282  1.6855  0.3824
 7525SOL    HW329873   1.685   3.243   1.512 -0.0752 -0.3648 -1.4734
 7525SOL    MW429874   1.661   3.322   1.484  0.1992  0.1398  0.0257
 7526SOL     OW29875   4.427   0.130   0.315 -0.1645 -0.3112  0.2513
 7526SOL    HW229876   4.346   0.181   0.319 -0.4023 -0.6987  0.3775
 7526SOL    HW329877   4.480   0.164   0.387 -0.4013 -0.3725  0.4572
 7526SOL    MW429878   4.423   0.142   0.325  0.1327  0.1185 -0.7217
 7527SOL     OW29879   5.562   2.484   6.311  0.3474 -0.2126 -0.2905
 7527SOL    HW229880   5.607   2.491   6.227 -0.1431  0.7102 -0.4869
 7527SOL    HW329881   5.503   2.409   6.299  0.2932 -0.1001 -0.7589
 7527SOL    MW429882   5.560   2.475   6.298 -0.2784 -0.0772  0.1460
 7528SOL     OW29883   2.548   4.002   4.639 -0.6080 -0.2668 -0.8007
 7528SOL    HW229884   2.473   3.952   4.670 -0.3045  0.8961  2.1266
 7528SOL    HW329885   2.542   3.997   4.543 -3.1361 -2.0004 -0.6596
 7528SOL    MW429886   2.538   3.995   4.630 -0.1579 -0.0806  0.2842
 7529SOL     OW29887   0.784   5.403   3.095 -0.2104  0.1560 -0.5475
 7529SOL    HW229888   0.842   5.445   3.158  1.4448 -2.1452 -0.4258
 7529SOL    HW329889   0.837   5.335   3.054 -2.2559 -0.7380 -1.9288
 7529SOL    MW429890   0.799   5.399   3.098  0.0188  0.3920 -0.7594
 7530SOL     OW29891   5.249   4.713   1.952 -0.2166 -0.0160  0.4963
 7530SOL    HW229892   5.273   4.664   2.030  1.4539  0.3020  0.2256
 7530SOL    HW329893   5.248   4.648   1.882 -2.2008 -0.3890  0.8427
 7530SOL    MW429894   5.252   4.698   1.953  0.1924  0.2176 -0.3183
 7531SOL     OW29895   1.980   5.237   1.768  0.1536  0.1693 -0.0370
 7531SOL    HW229896   2.050   5.302   1.777  0.2621  0.3178 -1.6856
 7531SOL    HW329897   1.909   5.271   1.822  0.7478  0.8900  0.3111
 7531SOL    MW429898   1.980   5.250   1.776  0.2781 -0.0052 -0.4459
 7532SOL     OW29899   2.479   1.854   0.890  0.2786 -0.2708 -0.3983
 7532SOL    HW229900   2.505   1.860   0.982  0.6372  0.8775 -0.5621
 7532SOL    HW329901   2.489   1.761   0.869 -0.7597 -0.7374  0.9895
 7532SOL    MW429902   2.484   1.842   0.899  0.1051  0.4107 -0.8091
 7533SOL     OW29903   0.679   1.081   4.604  0.2692  0.2170  0.2200
 7533SOL    HW229904   0.598   1.098   4.556  0.3667 -0.6642 -0.2667
 7533SOL    HW329905   0.651   1.073   4.695 -0.0250  1.1023  0.2130
 7533SOL    MW429906   0.665   1.082   4.610 -1.4313  0.1807 -0.7038
 7534SOL     OW29907   3.658   3.882   4.132  0.1932 -0.1712 -0.3241
 7534SOL    HW229908   3.674   3.801   4.180 -1.8904  0.0164  0.8074
 7534SOL    HW329909   3.667   3.951   4.197 -0.7477  0.2595 -0.6270
 7534SOL    MW429910   3.661   3.880   4.147  0.1828 -0.4251 -0.1041
 7535SOL     OW29911   6.145   3.527   0.430 -0.0155 -0.2103 -0.0958
 7535SOL    HW229912   6.115   3.446   0.388  1.5044  0.2362 -2.1744
 7535SOL    HW329913   6.187   3.577   0.360  2.4846  0.7057  1.8943
 7535SOL    MW429914   6.146   3.523   0.415 -0.0786 -0.0007 -0.2505
 7536SOL     OW29915   1.101   6.177   6.347 -0.3643 -0.0519  0.0397
 7536SOL    HW229916   1.133   6.263   6.321 -0.7953  0.1419  0.1393
 7536SOL    HW329917   1.163   6.147   6.413  0.0927 -0.0547 -0.3907
 7536SOL    MW429918   1.113   6.184   6.353  0.9536 -0.0096  0.0823
 7537SOL     OW29919   0.052   5.914   5.763  0.3681 -0.5196 -0.4874
 7537SOL    HW229920   0.102   5.834   5.783  2.3953  0.4497 -1.3956
 7537SOL    HW329921   0.017   5.899   5.675  1.8774  0.0723 -1.2206
 7537SOL    MW429922   0.054   5.902   5.754  0.0539  0.2646  0.5638
 7538SOL     OW29923   1.677   4.605   1.990 -0.3041 -0.1790 -0.4555
 7538SOL    HW229924   1.583   4.622   2.001 -0.0535  0.4414  0.9443
 7538SOL    HW329925   1.719   4.655   2.061  0.9308 -2.0568  0.2135
 7538SOL    MW429926   1.670   4.614   2.001 -0.0625  0.1997  0.1352
 7539SOL     OW29927   4.953   0.450   1.322 -0.3109  0.3492  0.3380
 7539SOL    HW229928   4.982   0.384   1.259  0.9371 -2.3441  3.4389
 7539SOL    HW329929   4.990   0.532   1.289 -1.7080 -0.3849 -3.5738
 7539SOL    MW429930   4.962   0.452   1.310 -0.3155 -0.9215 -0.0678
 7540SOL     OW29931   3.222   6.350   4.171 -0.3260  0.4410 -0.2240
 7540SOL    HW229932   3.293   6.413   4.159  0.0936  0.0835  0.3204
 7540SOL    HW329933   3.247   6.276   4.115  0.4212 -0.2330  0.9415
 7540SOL    MW429934   3.235   6.349   4.162  0.5317 -0.7751  0.0761
 7541SOL     OW29935   1.931   6.125   4.062  0.6613  0.0141  0.2526
 7541SOL    HW229936   1.977   6.042   4.061 -0.5440 -0.6763 -0.4288
 7541SOL    HW329937   1.853   6.110   4.114 -0.2570  0.2984 -0.9818
 7541SOL    MW429938   1.927   6.112   4.069 -0.2095  0.0771 -0.7050
 7542SOL     OW29939   0.434   2.209   1.150 -0.3258  0.0902  0.0549
 7542SOL    HW229940   0.518   2.246   1.178 -0.5632 -0.8043  2.1662
 7542SOL    HW329941   0.457   2.146   1.082  0.2111  3.0114 -2.6638
 7542SOL    MW429942   0.448   2.206   1.145  0.2028 -0.5753  0.0846
 7543SOL     OW29943   0.364   4.491   2.045  0.0153  0.0260 -0.3346
 7543SOL    HW229944   0.367   4.401   2.014 -0.9632  0.3575 -1.4530
 7543SOL    HW329945   0.273   4.506   2.068 -0.3539  1.4327 -2.4356
 7543SOL    MW429946   0.352   4.481   2.044  0.0624 -0.0482 -0.3863
 7544SOL     OW29947   1.131   2.961   4.450  0.1522 -0.0857 -0.7349
 7544SOL    HW229948   1.175   3.019   4.513  0.3837 -0.6301 -0.3893
 7544SOL    HW329949   1.187   2.884   4.445 -2.0807 -2.0845  1.8443
 7544SOL    MW429950   1.144   2.958   4.458 -0.1313  0.1359 -0.5044
 7545SOL     OW29951   3.976   6.018   5.612 -0.2766 -0.3793 -0.3378
 7545SOL    HW229952   3.896   6.060   5.645  0.1480  0.2416 -0.0735
 7545SOL    HW329953   4.001   6.070   5.536 -2.0901 -2.7035 -2.6755
 7545SOL    MW429954   3.969   6.030   5.607  0.3698 -0.2972  0.2137
 7546SOL     OW29955   0.297   2.129   1.852 -0.3717  0.4312  0.2605
 7546SOL    HW229956   0.269   2.044   1.818 -0.6155  0.0465  1.3932
 7546SOL    HW329957   0.310   2.115   1.945  1.0043  1.2917  0.2190
 7546SOL    MW429958   0.295   2.116   1.860  0.0917 -0.1864 -0.1548
 7547SOL     OW29959   1.589   5.731   3.902  0.4315  0.0393  0.3937
 7547SOL    HW229960   1.516   5.680   3.868  1.2724 -0.5270 -0.5861
 7547SOL    HW329961   1.586   5.717   3.997 -0.3969 -0.4069  0.3050
 7547SOL    MW429962   1.579   5.722   3.910 -0.8311 -0.0328 -0.4610
 7548SOL     OW29963   0.407   0.483   5.593 -0.4326  0.1513  0.1903
 7548SOL    HW229964   0.439   0.570   5.615  1.1164 -0.6692  1.4873
 7548SOL    HW329965   0.486   0.435   5.567 -1.1727 -1.0012  0.0047
 7548SOL    MW429966   0.422   0.488   5.593 -0.3936  0.1392 -0.1446
 7549SOL     OW29967   0.697   3.819   5.005  0.2483  0.0286  0.3089
 7549SOL    HW229968   0.688   3.758   5.079 -1.3559 -0.4036 -0.1974
 7549SOL    HW329969   0.621   3.877   5.013  1.6009  1.8370  0.6189
 7549SOL    MW429970   0.686   3.819   5.016  0.6592 -0.0120  0.5630
 7550SOL     OW29971   2.936   4.969   0.867  0.1720  0.1582  0.0890
 7550SOL    HW229972   2.980   5.049   0.898  0.7791 -0.0021 -0.3356
 7550SOL    HW329973   2.863   5.000   0.814 -0.4696  0.4338  1.0940
 7550SOL    MW429974   2.932   4.984   0.864 -0.0751 -0.0355  0.3942
 7551SOL     OW29975   2.179   5.379   3.678  0.0806 -0.0526  0.2575
 7551SOL    HW229976   2.092   5.360   3.641  0.0985 -0.4702  0.4223
 7551SOL    HW329977   2.167   5.459   3.729 -0.1218  0.0961 -0.0180
 7551SOL    MW429978   2.166   5.387   3.680  0.0823  0.2748 -0.1877
 7552SOL     OW29979   4.309   5.334   1.386  0.4434 -0.2154 -0.4886
 7552SOL    HW229980   4.290   5.270   1.317 -2.2671 -1.2622  1.0570
 7552SOL    HW329981   4.304   5.418   1.342  0.6653 -0.9297 -1.9403
 7552SOL    MW429982   4.306   5.336   1.371 -0.3053  0.7072  0.0709
 7553SOL     OW29983   1.941   0.636   6.237 -0.0834  0.6050  0.1747
 7553SOL    HW229984   1.875   0.608   6.300  0.5228  0.6031  0.8208
 7553SOL    HW329985   1.911   0.722   6.209 -1.0811  0.0229 -0.5806
 7553SOL    MW429986   1.929   0.644   6.242  0.0914 -0.3863  0.0108
 7554SOL     OW29987   0.847   5.450   4.021 -0.1220 -0.3164  0.1358
 7554SOL    HW229988   0.885   5.488   4.100  0.8093 -0.7444 -0.0896
 7554SOL    HW329989   0.805   5.369   4.051  1.9472 -1.5380 -0.0586
 7554SOL    MW429990   0.846   5.444   4.035 -0.2125 -0.2297  0.0548
 7555SOL     OW29991   2.393   3.498   4.161 -0.1501  0.0684 -0.2457
 7555SOL    HW229992   2.417   3.435   4.094  0.6357  0.5192 -0.3969
 7555SOL    HW329993   2.473   3.547   4.179 -1.0146  1.8973 -1.0570
 7555SOL    MW429994   2.407   3.496   4.155  0.5153 -0.6423 -0.1652
 7556SOL     OW29995   2.471   2.662   1.214  0.1532 -0.0261  0.2210
 7556SOL    HW229996   2.540   2.597   1.224 -1.4960 -1.6848  1.8490
 7556SOL    HW329997   2.397   2.625   1.262 -0.7980  3.2247  1.5379
 7556SOL    MW429998   2.470   2.649   1.222  0.2321 -0.3725 -0.2559
 7557SOL     OW29999   6.061   4.598   2.787 -0.1277  0.4791 -0.1660
 7557SOL    HW230000   6.103   4.552   2.860  0.3346  0.9189 -0.1474
 7557SOL    HW330001   6.097   4.687   2.791 -0.5910  0.6897 -0.5359
 7557SOL    MW430002   6.071   4.604   2.798 -0.3059 -0.1082  0.1884
 7558SOL     OW30003   1.917   0.404   3.488 -0.3954  0.1826  0.2673
 7558SOL    HW230004   1.916   0.309   3.495 -3.4000  0.2035  1.7040
 7558SOL    HW330005   1.850   0.424   3.423  0.3272  1.3303 -0.1553
 7558SOL    MW430006   1.908   0.394   3.481 -0.0316  0.1638  0.0054
 7559SOL     OW30007   0.071   4.886   5.825 -0.0069  0.3746 -0.4266
 7559SOL    HW230008   0.015   4.944   5.772  1.3007  1.9876 -0.1238
 7559SOL    HW330009   0.106   4.823   5.763 -0.9519  0.2957 -0.8985
 7559SOL    MW430010   0.068   4.885   5.809 -0.0391 -0.1394  0.4080
 7560SOL     OW30011   5.444   4.171   1.132  0.0777  0.3974  0.6601
 7560SOL    HW230012   5.494   4.243   1.172  0.2527  1.3165 -1.1006
 7560SOL    HW330013   5.464   4.177   1.039 -1.3966 -0.7715  0.2282
 7560SOL    MW430014   5.453   4.182   1.125 -0.2111 -0.3424 -0.8301
 7561SOL     OW30015   0.824   5.980   3.293 -0.4464  0.1304 -0.4292
 7561SOL    HW230016   0.743   6.022   3.321 -1.1495 -1.2031 -0.3866
 7561SOL    HW330017   0.868   5.956   3.374  0.9867  2.5627 -0.3881
 7561SOL    MW430018   0.819   5.982   3.307 -0.0650 -0.3777  0.2842
 7562SOL     OW30019   5.386   0.676   3.038  0.2965 -0.5854  0.1119
 7562SOL    HW230020   5.359   0.613   2.971 -0.5066  0.2652 -0.3841
 7562SOL    HW330021   5.311   0.681   3.097  0.4040 -0.1731  0.2133
 7562SOL    MW430022   5.373   0.668   3.037  0.1809  0.0992 -0.3819
 7563SOL     OW30023   0.146   1.376   3.183 -0.2399 -0.1371  0.4550
 7563SOL    HW230024   0.176   1.445   3.241  0.9720 -0.0072 -0.2972
 7563SOL    HW330025   0.131   1.419   3.099  0.3432 -0.7332  0.0295
 7563SOL    MW430026   0.148   1.391   3.179 -0.2001 -0.0776  0.5240
 7564SOL     OW30027   1.237   3.976   3.611 -0.3303  0.1098 -0.5702
 7564SOL    HW230028   1.202   3.888   3.597 -1.3023  0.5352 -0.8310
 7564SOL    HW330029   1.324   3.973   3.570 -0.7229 -0.4525 -1.4011
 7564SOL    MW430030   1.244   3.964   3.604 -0.5574  0.0969  0.5506
 7565SOL     OW30031   5.942   6.163   1.880 -0.3014  0.1144 -0.3513
 7565SOL    HW230032   5.890   6.182   1.958 -1.1772  0.4170 -0.9944
 7565SOL    HW330033   6.024   6.212   1.894  0.5933 -1.7436  1.4695
 7565SOL    MW430034   5.946   6.172   1.892 -0.2585 -0.1622  0.4878
 7566SOL     OW30035   5.242   5.437   4.779  0.1248  0.4685  0.6321
 7566SOL    HW230036   5.238   5.473   4.691 -1.4060  0.5101  0.6947
 7566SOL    HW330037   5.153   5.409   4.798  0.3444  0.7769  2.3015
 7566SOL    MW430038   5.230   5.438   4.770  0.0091 -0.3714 -0.2743
 7567SOL     OW30039   2.275   5.383   4.601 -0.4375 -0.0269  1.2315
 7567SOL    HW230040   2.340   5.445   4.634 -1.5013  1.2140  1.0836
 7567SOL    HW330041   2.325   5.304   4.579  1.5075  1.8415 -1.6218
 7567SOL    MW430042   2.290   5.380   4.603 -0.4888 -0.2082  0.0625
 7568SOL     OW30043   2.510   3.127   6.357  0.0283 -0.2207  0.2138
 7568SOL    HW230044   2.438   3.063   6.362  0.8152 -1.0485  1.8382
 7568SOL    HW330045   2.576   3.093   6.418  0.4763  2.1583  1.1763
 7568SOL    MW430046   2.509   3.114   6.366  0.5483  0.5308 -0.5334
 7569SOL     OW30047   1.696   3.713   3.273 -0.5113 -0.0988  0.4026
 7569SOL    HW230048   1.788   3.692   3.290 -0.6756 -0.1043  1.3049
 7569SOL    HW330049   1.690   3.807   3.285 -0.6245 -0.0939  0.3157
 7569SOL    MW430050   1.707   3.722   3.277 -0.1969  0.1766  0.3343
 7570SOL     OW30051   4.621   4.741   1.459 -0.6975  0.0255  0.6183
 7570SOL    HW230052   4.595   4.826   1.423 -1.4244  0.3604  1.8466
 7570SOL    HW330053   4.570   4.734   1.540 -0.4123 -1.4497  0.6869
 7570SOL    MW430054   4.610   4.751   1.465  0.3599  0.2888  0.0888
 7571SOL     OW30055   1.285   3.171   4.578  0.0173  0.0233  0.1101
 7571SOL    HW230056   1.212   3.226   4.608 -0.4208 -1.0090  0.9818
 7571SOL    HW330057   1.312   3.211   4.495  0.4442  2.2103  1.2133
 7571SOL    MW430058   1.279   3.184   4.571  0.4390 -0.2773 -0.2323
 7572SOL     OW30059   4.513   4.006   3.813  0.1572  0.6913 -0.3186
 7572SOL    HW230060   4.517   3.911   3.808 -1.9078  0.4587  0.9540
 7572SOL    HW330061   4.502   4.024   3.907  0.0744  2.1377 -0.5848
 7572SOL    MW430062   4.512   3.996   3.825  0.1045  0.2696 -0.1063
 7573SOL     OW30063   3.538   0.381   2.825 -0.3199  0.1993  0.2513
 7573SOL    HW230064   3.472   0.324   2.866  0.6641 -0.2443  1.2775
 7573SOL    HW330065   3.493   0.464   2.812 -1.6356 -0.6284 -0.7857
 7573SOL    MW430066   3.523   0.384   2.829 -0.3727  0.0824  0.5776
 7574SOL     OW30067   3.232   5.378   0.190  0.5199 -0.2312 -0.6379
 7574SOL    HW230068   3.225   5.284   0.174  0.3432 -0.3245 -0.0144
 7574SOL    HW330069   3.229   5.387   0.285 -0.6972  0.5113 -0.7282
 7574SOL    MW430070   3.231   5.367   0.200 -0.2682  0.1695  0.0859
 7575SOL     OW30071   5.605   1.701   1.382 -0.0598  0.1695 -0.1726
 7575SOL    HW230072   5.681   1.720   1.326 -0.7625 -1.5582 -1.8378
 7575SOL    HW330073   5.610   1.607   1.397 -1.8045  0.0334 -0.2586
 7575SOL    MW430074   5.616   1.691   1.376 -0.5158 -0.5523 -0.1713
 7576SOL     OW30075   0.306   3.016   1.310  0.6362 -0.1560 -0.7131
 7576SOL    HW230076   0.296   2.922   1.294 -0.7318 -0.1830  0.1649
 7576SOL    HW330077   0.287   3.057   1.225 -1.2613 -0.5703 -0.5425
 7576SOL    MW430078   0.302   3.009   1.297  0.1429 -0.4054 -0.2491
 7577SOL     OW30079   0.564   5.891   1.113  0.3897 -0.1281  0.0429
 7577SOL    HW230080   0.650   5.933   1.121  0.4408 -0.3878  0.9534
 7577SOL    HW330081   0.557   5.836   1.191 -1.2752  1.1210  0.8475
 7577SOL    MW430082   0.574   5.889   1.124  0.3832  0.4309 -0.1042
 7578SOL     OW30083   4.702   5.876   3.532  0.3937 -0.6000  0.0550
 7578SOL    HW230084   4.643   5.801   3.533 -0.0610 -0.2401  0.9257
 7578SOL    HW330085   4.734   5.880   3.441 -1.9167 -0.0339 -0.7962
 7578SOL    MW430086   4.698   5.867   3.520  0.1128 -0.2362  0.3814
 7579SOL     OW30087   2.302   5.396   0.425 -0.2361  0.2266  0.6276
 7579SOL    HW230088   2.335   5.406   0.514 -0.7446 -0.5437  0.9137
 7579SOL    HW330089   2.315   5.482   0.385  0.3089  0.4835  1.3341
 7579SOL    MW430090   2.308   5.409   0.432 -0.0427  0.1473 -0.3093
 7580SOL     OW30091   0.573   1.407   1.858 -0.2058 -0.6348  0.0867
 7580SOL    HW230092   0.655   1.411   1.808  0.3901 -1.6969  0.9356
 7580SOL    HW330093   0.512   1.462   1.809  0.4242 -1.4448 -1.6921
 7580SOL    MW430094   0.576   1.415   1.845  0.5281 -0.0348 -0.5176
 7581SOL     OW30095   5.543   3.696   1.445  0.1599  0.4913  0.1326
 7581SOL    HW230096   5.560   3.624   1.385 -0.2069  1.0726 -0.6817
 7581SOL    HW330097   5.631   3.730   1.466  0.3021  0.1452  0.1067
 7581SOL    MW430098   5.557   3.691   1.440 -0.2696 -0.1241 -0.3883
 7582SOL     OW30099   1.968   2.640   2.184  0.4786 -0.1977 -0.4374
 7582SOL    HW230100   2.040   2.581   2.165  1.6975  0.4397  1.8569
 7582SOL    HW330101   2.007   2.728   2.180 -0.9108  0.4028 -2.1437
 7582SOL    MW430102   1.982   2.644   2.181  0.0075  0.4494 -0.4073
 7583SOL     OW30103   2.405   0.284   5.369  0.0487 -0.6789  0.4160
 7583SOL    HW230104   2.482   0.333   5.340 -0.3212  0.8679  1.8592
 7583SOL    HW330105   2.331   0.337   5.340 -0.4470 -1.5294  0.1083
 7583SOL    MW430106   2.406   0.298   5.362 -0.1574  0.1931  0.3045
 7584SOL     OW30107   1.858   3.946   1.613 -0.0787  0.7094 -0.1082
 7584SOL    HW230108   1.839   3.968   1.705  0.2053  1.1147 -0.1467
 7584SOL    HW330109   1.847   3.851   1.609 -0.7040  0.7596  0.2011
 7584SOL    MW430110   1.854   3.936   1.625 -0.6393 -0.4131  0.0356
 7585SOL     OW30111   4.852   6.002   1.687 -0.9945  0.0967  0.7174
 7585SOL    HW230112   4.936   5.991   1.732 -0.2831 -0.1105 -0.6214
 7585SOL    HW330113   4.826   5.913   1.663  0.2028  0.3932 -2.0017
 7585SOL    MW430114   4.860   5.989   1.690 -0.3130 -0.0198  0.6427
 7586SOL     OW30115   5.915   2.932   3.443  0.0736 -0.2103  0.1224
 7586SOL    HW230116   5.825   2.947   3.414 -0.0767 -1.1647  0.0479
 7586SOL    HW330117   5.945   3.017   3.475 -1.0159  0.0150  0.5799
 7586SOL    MW430118   5.907   2.945   3.443 -0.0947 -0.9243  0.0243
 7587SOL     OW30119   4.170   5.457   5.831 -0.0000 -0.7086  0.0333
 7587SOL    HW230120   4.263   5.476   5.835 -0.0046 -0.8152  0.8633
 7587SOL    HW330121   4.127   5.536   5.864 -0.2824 -0.1324 -1.6363
 7587SOL    MW430122   4.176   5.470   5.836  0.0398 -0.3016 -0.2268
 7588SOL     OW30123   6.151   1.878   3.897 -0.0143 -0.2864 -0.3887
 7588SOL    HW230124   6.123   1.965   3.926 -1.7274  0.1017 -2.8732
 7588SOL    HW330125   6.239   1.868   3.932 -0.3806  1.7700  1.2917
 7588SOL    MW430126   6.159   1.888   3.906 -0.4786 -0.2693 -0.6246
 7589SOL     OW30127   1.490   5.349   5.110 -0.6964  0.1874 -0.0981
 7589SOL    HW230128   1.401   5.379   5.126 -0.2412  1.1846  0.7225
 7589SOL    HW330129   1.481   5.255   5.093 -1.8048  0.0463  1.0706
 7589SOL    MW430130   1.477   5.340   5.110  0.1636 -0.4146  0.1542
 7590SOL     OW30131   4.950   1.050   4.593 -0.5887  0.2380  0.4488
 7590SOL    HW230132   4.986   1.138   4.585  0.0617 -0.0474  0.2089
 7590SOL    HW330133   4.857   1.064   4.614 -0.1497  0.9882  2.0161
 7590SOL    MW430134   4.942   1.063   4.595  0.0176  0.0163  0.3488
 7591SOL     OW30135   2.312   2.530   3.114  0.2654  0.5634  0.3285
 7591SOL    HW230136   2.293   2.564   3.202 -0.9735  1.3202 -0.2037
 7591SOL    HW330137   2.284   2.601   3.055  0.1683 -0.3217 -0.7097
 7591SOL    MW430138   2.306   2.544   3.118  0.1338  0.4001  0.4314
 7592SOL     OW30139   2.093   4.489   3.081 -0.0838 -0.2181 -0.4370
 7592SOL    HW230140   2.008   4.494   3.037 -0.2305 -0.2709 -0.1624
 7592SOL    HW330141   2.092   4.404   3.126  0.4513 -0.5962 -1.1119
 7592SOL    MW430142   2.082   4.478   3.081  0.2894  0.5158  0.4216
 7593SOL     OW30143   5.008   2.888   1.903 -0.9163 -0.2003  0.7851
 7593SOL    HW230144   4.920   2.871   1.938  0.0863  2.2142  5.2618
 7593SOL    HW330145   5.064   2.892   1.981  2.7686  0.7023 -1.6624
 7593SOL    MW430146   5.003   2.886   1.918 -0.1016 -0.7383 -0.3369
 7594SOL     OW30147   5.958   3.943   4.870 -0.0579 -0.2032  0.1568
 7594SOL    HW230148   5.891   3.882   4.841  0.6061 -0.8952  0.0354
 7594SOL    HW330149   5.936   3.963   4.961  0.0589 -1.1151  0.3931
 7594SOL    MW430150   5.946   3.938   4.878  0.3237 -0.1026  0.3541
 7595SOL     OW30151   5.606   1.297   6.240  0.6172  0.0112 -0.0038
 7595SOL    HW230152   5.687   1.269   6.284  0.7997 -0.9415 -0.9102
 7595SOL    HW330153   5.569   1.363   6.298  1.4188 -0.4258  1.0366
 7595SOL    MW430154   5.612   1.302   6.254 -0.3940  0.0294  0.1533
 7596SOL     OW30155   2.470   5.598   2.988  0.4222  0.3833  0.0036
 7596SOL    HW230156   2.379   5.627   2.995  0.2031 -0.1890 -0.3907
 7596SOL    HW330157   2.479   5.570   2.897  0.1624 -2.2233  0.6845
 7596SOL    MW430158   2.459   5.598   2.977  0.6342 -0.2438 -0.2646
 7597SOL     OW30159   3.450   1.061   2.736 -0.3814 -0.1669  0.1322
 7597SOL    HW230160   3.517   1.081   2.670 -0.2729  2.1655  0.8870
 7597SOL    HW330161   3.491   0.994   2.791  0.4797 -0.3487 -0.6830
 7597SOL    MW430162   3.464   1.054   2.734  0.3225  0.2160 -0.3493
 7598SOL     OW30163   2.218   3.370   1.794  0.3656  0.5081 -0.0175
 7598SOL    HW230164   2.184   3.284   1.819 -0.3614  0.5339 -0.8736
 7598SOL    HW330165   2.282   3.352   1.725 -0.4158  0.7016 -0.8080
 7598SOL    MW430166   2.222   3.356   1.788 -0.3363  0.1106 -0.8511
 7599SOL     OW30167   0.308   1.858   1.743 -0.3373 -0.0643 -0.3645
 7599SOL    HW230168   0.397   1.846   1.708 -0.3765  1.9095 -1.3230
 7599SOL    HW330169   0.251   1.856   1.667 -0.6353  2.5313 -0.3012
 7599SOL    MW430170   0.313   1.856   1.729  0.0547  0.6956 -0.1778
 7600SOL     OW30171   5.731   2.465   2.640 -0.6351  0.3431 -0.1859
 7600SOL    HW230172   5.639   2.439   2.643 -0.5700 -0.2127 -1.7713
 7600SOL    HW330173   5.779   2.382   2.641 -0.2235  0.5665 -0.8282
 7600SOL    MW430174   5.725   2.451   2.641 -0.2386 -0.0179  0.2076
 7601SOL     OW30175   2.126   4.394   1.613 -0.5353  0.3447 -0.0298
 7601SOL    HW230176   2.036   4.361   1.618 -0.7212  0.8846  0.2472
 7601SOL    HW330177   2.178   4.326   1.655 -0.8360  0.1039 -0.0412
 7601SOL    MW430178   2.121   4.380   1.619 -0.1940  0.4098  0.3824
 7602SOL     OW30179   5.268   4.059   1.977  0.1033  0.6698  0.0568
 7602SOL    HW230180   5.284   4.130   1.915 -0.0923 -0.4869 -1.3629
 7602SOL    HW330181   5.318   3.985   1.943  0.4784  0.1688  1.6228
 7602SOL    MW430182   5.276   4.059   1.964 -0.2620 -0.1402  0.2909
 7603SOL     OW30183   5.788   3.199   2.296 -0.1589 -0.1416 -0.1527
 7603SOL    HW230184   5.840   3.278   2.279  0.7435 -0.3764  1.3196
 7603SOL    HW330185   5.731   3.223   2.369  0.4941 -0.9917  0.6539
 7603SOL    MW430186   5.787   3.212   2.304 -0.9778 -0.2244 -0.1457
 7604SOL     OW30187   0.674   2.070   4.784  0.6563  0.3365  0.6818
 7604SOL    HW230188   0.669   2.069   4.880  1.3524  0.7892  0.7258
 7604SOL    HW330189   0.766   2.085   4.765  0.6078 -0.2402 -0.0686
 7604SOL    MW430190   0.685   2.072   4.794 -0.1509 -0.8389 -0.4509
 7605SOL     OW30191   2.045   3.717   5.453  0.6637 -0.1155 -0.0161
 7605SOL    HW230192   2.003   3.672   5.379  0.7064  0.7263 -0.5625
 7605SOL    HW330193   1.972   3.747   5.507  0.6381 -1.2139  0.6043
 7605SOL    MW430194   2.030   3.715   5.450 -0.2168 -0.3765 -0.8383
 7606SOL     OW30195   1.542   3.250   6.376 -0.5365 -0.0063  0.5636
 7606SOL    HW230196   1.530   3.248   6.471 -0.5733 -0.6784  0.5513
 7606SOL    HW330197   1.545   3.343   6.354 -0.6759  0.1554  1.2039
 7606SOL    MW430198   1.541   3.262   6.386  0.2193 -0.1639 -0.1019
 7607SOL     OW30199   5.963   1.931   4.856 -0.0066  0.3627 -0.6548
 7607SOL    HW230200   5.996   2.007   4.903  1.7151 -0.3002 -0.7210
 7607SOL    HW330201   6.039   1.874   4.847 -1.4354 -1.7886  0.1998
 7607SOL    MW430202   5.977   1.934   4.861  0.0157 -0.3940 -0.3832
 7608SOL     OW30203   5.002   0.638   0.717 -0.0962  0.4553  0.3069
 7608SOL    HW230204   5.033   0.626   0.627  1.2043  1.2675  0.6214
 7608SOL    HW330205   5.078   0.669   0.765 -1.2041  1.8060  1.2964
 7608SOL    MW430206   5.016   0.641   0.711  0.0073  0.7045  0.0721
 7609SOL     OW30207   3.392   6.341   5.828 -0.2556  0.3221 -0.0002
 7609SOL    HW230208   3.364   6.250   5.834  1.7776 -0.6151 -2.5118
 7609SOL    HW330209   3.332   6.380   5.765 -1.2348  0.8301  1.2047
 7609SOL    MW430210   3.381   6.334   5.820  0.4831 -0.3039  0.3929
 7610SOL     OW30211   6.014   5.999   4.524 -0.2520 -0.5193  0.1488
 7610SOL    HW230212   5.922   6.023   4.517  0.2619  2.4007  1.6312
 7610SOL    HW330213   6.056   6.077   4.562  2.7959 -1.8089 -0.2827
 7610SOL    MW430214   6.007   6.013   4.528 -0.3838 -0.1943 -0.2815
 7611SOL     OW30215   1.561   0.831   1.957  0.0447 -0.0874  0.2086
 7611SOL    HW230216   1.539   0.873   2.040 -0.8590 -0.3236  0.0998
 7611SOL    HW330217   1.650   0.861   1.937 -0.0984  0.7329  0.7729
 7611SOL    MW430218   1.570   0.840   1.965 -0.2755  0.2367 -0.3989
 7612SOL     OW30219   3.089   4.293   4.185  0.9461 -0.5075  0.2172
 7612SOL    HW230220   3.127   4.351   4.120  0.6375 -0.3566  0.1699
 7612SOL    HW330221   3.105   4.336   4.269  2.3963 -1.2674  0.3670
 7612SOL    MW430222   3.096   4.306   4.188  0.4023 -0.2869 -0.3246
 7613SOL     OW30223   6.349   2.796   5.984  0.2171 -0.1621  0.0963
 7613SOL    HW230224   6.310   2.869   6.032  0.4872  0.3889 -0.5016
 7613SOL    HW330225   6.352   2.724   6.047  0.2608  0.4448  0.8022
 7613SOL    MW430226   6.344   2.796   5.999 -0.2007 -0.1204  0.0940
 7614SOL     OW30227   2.119   1.216   2.871  0.3337 -0.5240  0.4541
 7614SOL    HW230228   2.088   1.181   2.955  0.5181  1.4857  1.4233
 7614SOL    HW330229   2.214   1.207   2.876  0.3003 -1.1307  0.0972
 7614SOL    MW430230   2.127   1.210   2.883 -0.6504 -0.3658  0.3796
 7615SOL     OW30231   1.130   1.606   0.098 -0.1953  0.4444 -0.2540
 7615SOL    HW230232   1.109   1.698   0.116  0.3311  0.6466 -0.6339
 7615SOL    HW330233   1.213   1.610   0.050  0.4603 -0.3022  0.7918
 7615SOL    MW430234   1.138   1.619   0.094  0.1717  0.2321  0.6347
 7616SOL     OW30235   3.025   4.860   4.057 -0.0043 -0.6185 -0.2449
 7616SOL    HW230236   3.095   4.912   4.097 -1.4464  1.4244 -0.1971
 7616SOL    HW330237   3.060   4.835   3.971  1.5899 -1.5980  0.6385
 7616SOL    MW430238   3.039   4.864   4.051  0.1105 -0.2334  0.2928
 7617SOL     OW30239   4.641   4.634   1.196 -0.1145  0.0364 -0.0071
 7617SOL    HW230240   4.626   4.695   1.124 -0.6750  1.2465  1.0981
 7617SOL    HW330241   4.616   4.683   1.274 -0.4182 -1.5608  0.9375
 7617SOL    MW430242   4.636   4.648   1.197 -0.1162 -0.0866 -0.3926
 7618SOL     OW30243   2.742   4.763   3.641  0.4160  0.0855 -0.7864
 7618SOL    HW230244   2.656   4.771   3.600 -0.6478  1.5610  1.5265
 7618SOL    HW330245   2.763   4.852   3.669  2.3782 -0.3863 -0.6313
 7618SOL    MW430246   2.734   4.776   3.639  0.5329 -0.4161  0.0537
 7619SOL     OW30247   3.302   0.254   2.865  0.3786  0.1829 -0.3600
 7619SOL    HW230248   3.233   0.245   2.800  0.7384 -0.6706 -0.6352
 7619SOL    HW330249   3.316   0.166   2.898 -0.5033  0.7417  1.6335
 7619SOL    MW430250   3.295   0.241   2.861 -0.0912 -0.1445 -0.2862
 7620SOL     OW30251   0.684   2.991   3.038  0.2460  0.5614 -0.3580
 7620SOL    HW230252   0.607   2.937   3.020 -1.0039  2.4142 -0.8049
 7620SOL    HW330253   0.660   3.078   3.008  2.1715  1.4095  0.4038
 7620SOL    MW430254   0.671   2.995   3.032  0.2514 -0.2312  0.6467
 7621SOL     OW30255   2.900   2.323   4.125 -0.2009  0.0466  0.0718
 7621SOL    HW230256   2.926   2.273   4.202 -0.0615  0.6442  0.4115
 7621SOL    HW330257   2.940   2.409   4.136 -1.6628  0.7368  0.2260
 7621SOL    MW430258   2.909   2.328   4.136 -0.0779  0.0411  0.3689
 7622SOL     OW30259   1.225   3.187   3.489  0.4414  0.2551 -0.4203
 7622SOL    HW230260   1.205   3.116   3.428  0.6135 -0.6135  0.5015
 7622SOL    HW330261   1.319   3.179   3.506  0.3392  0.2864  0.1951
 7622SOL    MW430262   1.235   3.177   3.483  0.0399 -0.1751 -0.0233
 7623SOL     OW30263   0.574   1.617   0.500 -0.0672 -0.2095 -0.1119
 7623SOL    HW230264   0.582   1.679   0.573  1.8379  0.5359 -0.9106
 7623SOL    HW330265   0.482   1.623   0.475 -0.2152  1.3540  0.6546
 7623SOL    MW430266   0.563   1.626   0.507 -0.1671  0.1096 -0.3456
 7624SOL     OW30267   6.013   3.265   2.791  0.3626 -0.2222 -0.1718
 7624SOL    HW230268   6.093   3.276   2.740  0.8037  1.2038  0.7433
 7624SOL    HW330269   6.037   3.293   2.879 -1.0252 -0.2269  0.2361
 7624SOL    MW430270   6.027   3.270   2.796 -0.3213 -0.3659  0.5675
 7625SOL     OW30271   4.370   0.594   0.146  0.1089 -0.7199  0.0371
 7625SOL    HW230272   4.415   0.674   0.172 -1.7411  0.3833  0.0424
 7625SOL    HW330273   4.326   0.564   0.226  0.2150 -1.3351 -0.1342
 7625SOL    MW430274   4.370   0.600   0.160  0.5959 -0.4575 -0.0042
 7626SOL     OW30275   2.893   1.122   4.813  0.1855 -0.5000  0.4619
 7626SOL    HW230276   2.853   1.207   4.794  0.7532 -0.5707 -1.2035
 7626SOL    HW330277   2.904   1.122   4.908 -0.9124  0.7899  0.6198
 7626SOL    MW430278   2.889   1.133   4.823 -0.0326  0.1278  0.7759
 7627SOL     OW30279   2.291   6.320   4.714  0.5144  0.0246 -0.0067
 7627SOL    HW230280   2.305   6.365   4.797  0.1973  0.9034 -0.4154
 7627SOL    HW330281   2.222   6.256   4.733  0.3463  0.3144  0.3743
 7627SOL    MW430282   2.284   6.317   4.728 -0.4836 -0.8370 -0.0760
 7628SOL     OW30283   4.232   1.116   1.554  0.1623  0.5248  0.1416
 7628SOL    HW230284   4.256   1.111   1.461  0.6825 -0.6272  0.3275
 7628SOL    HW330285   4.171   1.189   1.558  0.5068  0.9073 -1.0307
 7628SOL    MW430286   4.227   1.125   1.542 -0.1321 -0.0188  0.0421
 7629SOL     OW30287   5.808   0.082   0.216  0.5537 -0.1151  0.0615
 7629SOL    HW230288   5.752   0.011   0.248 -0.4483  0.1949 -0.9548
 7629SOL    HW330289   5.775   0.161   0.260  0.9376 -0.0951  0.3234
 7629SOL    MW430290   5.796   0.083   0.226  0.6418  0.2131 -0.1227
 7630SOL     OW30291   2.788   2.826   3.919 -0.1595  0.0286 -0.0968
 7630SOL    HW230292   2.720   2.863   3.863 -0.2510 -0.5309 -0.3603
 7630SOL    HW330293   2.858   2.801   3.858 -0.2161 -0.4900  0.0505
 7630SOL    MW430294   2.788   2.828   3.903  0.0092 -0.2974  0.3760
 7631SOL     OW30295   2.539   2.897   3.811  0.4808  0.3461  0.3886
 7631SOL    HW230296   2.507   2.833   3.747  2.5672 -0.8688  0.4952
 7631SOL    HW330297   2.459   2.939   3.844 -0.9513 -1.8869  0.0039
 7631SOL    MW430298   2.524   2.894   3.807  0.2938  0.2686 -0.5271
 7632SOL     OW30299   6.395   0.275   5.167  0.2675  0.0299 -0.3115
 7632SOL    HW230300   6.359   0.309   5.085 -0.2942  0.8910  0.2703
 7632SOL    HW330301   6.468   0.219   5.141  0.0669  0.2646 -1.3934
 7632SOL    MW430302   6.400   0.272   5.153 -0.0837 -0.2573 -0.4049
 7633SOL     OW30303   3.699   4.415   2.118  0.1613 -0.2854  0.5542
 7633SOL    HW230304   3.661   4.459   2.194 -0.4494  0.9825 -0.4507
 7633SOL    HW330305   3.793   4.428   2.126 -0.0036  1.2134  0.3066
 7633SOL    MW430306   3.706   4.422   2.129  0.0862 -0.0397  0.5753
 7634SOL     OW30307   4.389   3.464   2.045 -0.2550 -0.1231  0.1396
 7634SOL    HW230308   4.303   3.428   2.024 -0.1519 -1.4646  1.7705
 7634SOL    HW330309   4.447   3.388   2.044  1.2416  0.9329 -2.2084
 7634SOL    MW430310   4.385   3.449   2.042  0.1415 -0.1932  0.1827
 7635SOL     OW30311   6.348   6.281   2.568  0.1279  0.3426 -0.6065
 7635SOL    HW230312   6.421   6.314   2.516  1.1771 -0.7964  0.0821
 7635SOL    HW330313   6.310   6.211   2.515 -0.7065  1.1631 -1.1155
 7635SOL    MW430314   6.352   6.276   2.554  0.5184  0.0309  0.1527
 7636SOL     OW30315   4.545   4.074   2.387  0.0454  0.4696  0.1575
 7636SOL    HW230316   4.559   4.128   2.309  0.0739  1.0391  0.5536
 7636SOL    HW330317   4.632   4.067   2.427  0.2832 -0.8829 -0.5306
 7636SOL    MW430318   4.559   4.080   2.382  0.0598 -0.5975  0.2203
 7637SOL     OW30319   2.282   4.940   4.778  0.0823  0.7369  0.1039
 7637SOL    HW230320   2.206   4.962   4.723  0.7925 -1.1106 -1.7628
 7637SOL    HW330321   2.257   4.970   4.866 -2.8408  0.1896 -0.4069
 7637SOL    MW430322   2.268   4.947   4.782 -0.5155  0.1926  0.2094
 7638SOL     OW30323   1.262   1.544   1.036 -0.2653  0.3336 -0.2567
 7638SOL    HW230324   1.228   1.455   1.027 -0.3131  0.4152 -0.9158
 7638SOL    HW330325   1.285   1.571   0.947 -0.5823  1.1132 -0.1144
 7638SOL    MW430326   1.261   1.536   1.023 -0.4823 -0.0834 -0.1822
 7639SOL     OW30327   6.160   5.591   5.117  0.4390 -0.2227  0.0050
 7639SOL    HW230328   6.228   5.528   5.139  0.4856 -0.7674 -1.5627
 7639SOL    HW330329   6.203   5.653   5.057  0.0246  0.4943  0.4241
 7639SOL    MW430330   6.175   5.591   5.112 -0.2842  0.6116 -0.1685
 7640SOL     OW30331   4.421   4.185   4.754  0.2085 -0.5997 -0.0988
 7640SOL    HW230332   4.507   4.154   4.782  1.7695  1.8278 -1.7520
 7640SOL    HW330333   4.374   4.107   4.727  2.6670 -1.8440 -1.0617
 7640SOL    MW430334   4.426   4.171   4.754  0.3527 -0.1900 -0.3938
 7641SOL     OW30335   3.388   4.802   5.809  0.4421  0.1148  0.2202
 7641SOL    HW230336   3.375   4.767   5.897  0.0279 -2.6290 -0.8407
 7641SOL    HW330337   3.473   4.846   5.814  0.5291 -0.1597  1.9356
 7641SOL    MW430338   3.398   4.803   5.822  0.2175  0.1971 -0.3795
 7642SOL     OW30339   0.710   0.825   0.799 -0.3177 -0.5544  0.5269
 7642SOL    HW230340   0.669   0.907   0.772 -1.8961 -1.6082 -0.5063
 7642SOL    HW330341   0.793   0.851   0.839  0.1397  1.4325 -1.4992
 7642SOL    MW430342   0.716   0.839   0.800  0.3518 -0.3074  0.1476
 7643SOL     OW30343   2.633   0.404   5.278  0.1738 -0.1236 -0.7812
 7643SOL    HW230344   2.675   0.373   5.198  0.0581 -2.8189  0.1028
 7643SOL    HW330345   2.701   0.395   5.345 -1.0775 -2.5699  0.2702
 7643SOL    MW430346   2.648   0.399   5.276 -0.0625  0.3264 -0.5403
 7644SOL     OW30347   4.693   5.263   5.658 -0.5853  0.2900  0.4950
 7644SOL    HW230348   4.632   5.329   5.690  0.7198  0.7591  2.1603
 7644SOL    HW330349   4.761   5.313   5.613 -0.9359 -0.1490 -0.5378
 7644SOL    MW430350   4.694   5.278   5.657 -0.2943  0.4441 -0.6421
 7645SOL     OW30351   6.305   0.248   5.966  0.1114  0.1510  0.0343
 7645SOL    HW230352   6.273   0.166   5.930 -0.2872 -0.1808  1.1167
 7645SOL    HW330353   6.227   0.294   5.995  0.4325  0.3383  0.6214
 7645SOL    MW430354   6.291   0.244   5.965  0.1997 -0.5057 -0.0847
 7646SOL     OW30355   0.560   6.263   1.803  0.7289 -0.3278  0.3740
 7646SOL    HW230356   0.503   6.186   1.794 -1.8665  1.3398  1.4489
 7646SOL    HW330357   0.513   6.333   1.758  2.1893  1.0387  0.8805
 7646SOL    MW430358   0.546   6.262   1.796  0.4201  0.2454  0.3365
 7647SOL     OW30359   6.325   3.856   0.737 -0.4342  0.4046  0.1085
 7647SOL    HW230360   6.373   3.899   0.665 -1.4329 -0.1320 -0.9102
 7647SOL    HW330361   6.279   3.928   0.781  0.0545  0.7182  0.1211
 7647SOL    MW430362   6.325   3.871   0.733  0.6731  0.1773 -0.0531
 7648SOL     OW30363   2.782   1.412   3.227  0.7899  0.2872 -0.0513
 7648SOL    HW230364   2.686   1.406   3.231  0.8448 -1.1360 -0.1617
 7648SOL    HW330365   2.802   1.501   3.255 -0.5564  0.5322  0.2040
 7648SOL    MW430366   2.772   1.423   3.231  0.3412 -0.1760  0.0019
 7649SOL     OW30367   4.604   0.601   1.381 -0.1633  0.0543  0.4889
 7649SOL    HW230368   4.598   0.524   1.325  0.5991  0.4225 -0.1156
 7649SOL    HW330369   4.523   0.649   1.365 -0.0819  0.0103 -0.0886
 7649SOL    MW430370   4.592   0.598   1.372  0.1801 -0.0524  0.1672
 7650SOL     OW30371   3.750   4.272   4.908  0.1177 -0.4023 -0.1411
 7650SOL    HW230372   3.704   4.223   4.976 -0.5806 -1.4052 -1.2966
 7650SOL    HW330373   3.680   4.303   4.850  0.7552 -0.2473 -0.8377
 7650SOL    MW430374   3.735   4.270   4.910 -0.3731 -0.1561 -0.4058
 7651SOL     OW30375   4.623   5.637   2.878 -0.0913 -0.2983 -0.4139
 7651SOL    HW230376   4.551   5.677   2.828 -0.5609 -1.0071 -0.3269
 7651SOL    HW330377   4.670   5.711   2.915 -1.0735  0.1714 -0.0703
 7651SOL    MW430378   4.620   5.652   2.876 -0.0102 -0.3434 -0.0642
 7652SOL     OW30379   2.414   5.825   4.345 -0.1430  0.1284 -0.0800
 7652SOL    HW230380   2.455   5.748   4.384  0.8971  0.1771 -1.0358
 7652SOL    HW330381   2.483   5.866   4.294 -1.1051  0.8044 -0.8897
 7652SOL    MW430382   2.428   5.820   4.343  0.0010  0.5807  0.0185
 7653SOL     OW30383   5.650   4.058   1.977 -0.2550 -0.4638 -0.1075
 7653SOL    HW230384   5.700   4.136   2.000 -3.4107  1.6364  0.3734
 7653SOL    HW330385   5.669   4.044   1.884  0.2160  1.0635 -0.2684
 7653SOL    MW430386   5.659   4.066   1.968  0.4331  0.2772 -0.0957
 7654SOL     OW30387   5.035   5.622   5.938 -0.2733 -0.1076  0.5305
 7654SOL    HW230388   5.121   5.638   5.898  0.3250 -0.8155  1.4940
 7654SOL    HW330389   5.023   5.695   5.999 -0.1799 -0.2283  0.6916
 7654SOL    MW430390   5.045   5.634   5.941 -0.2677  0.7001  0.0948
 7655SOL     OW30391   5.965   4.120   1.729 -0.1477  0.4331 -0.5280
 7655SOL    HW230392   6.044   4.140   1.680 -0.3745  0.9128 -0.6996
 7655SOL    HW330393   5.916   4.202   1.731 -0.3945  0.2789  0.0325
 7655SOL    MW430394   5.969   4.133   1.723  0.0364  0.0299  0.2130
 7656SOL     OW30395   3.707   1.780   0.739 -0.0167 -0.2914 -0.0326
 7656SOL    HW230396   3.704   1.874   0.719  0.5036  0.0678  1.4644
 7656SOL    HW330397   3.771   1.745   0.678  0.9617  0.6302  0.4194
 7656SOL    MW430398   3.715   1.788   0.728  0.6500  0.5046  0.5246
 7657SOL     OW30399   6.345   3.271   5.220 -0.4992  0.4596 -0.0428
 7657SOL    HW230400   6.385   3.353   5.247 -0.0479 -0.6520  2.9864
 7657SOL    HW330401   6.274   3.297   5.161  2.4469  2.6878 -3.0103
 7657SOL    MW430402   6.341   3.285   5.216  0.6819 -0.3788 -0.0408
 7658SOL     OW30403   0.701   1.234   2.418 -0.4091 -0.4509  0.3110
 7658SOL    HW230404   0.710   1.141   2.438 -0.0902 -0.6168 -0.5625
 7658SOL    HW330405   0.623   1.239   2.363 -0.9154 -0.0815  1.0455
 7658SOL    MW430406   0.692   1.222   2.414  0.0936  0.3958 -0.1989
 7659SOL     OW30407   0.878   0.972   4.128 -0.1140  0.8743  0.1088
 7659SOL    HW230408   0.971   0.955   4.139 -0.4783 -0.7613  1.0197
 7659SOL    HW330409   0.850   0.907   4.063 -0.5840  1.5226 -0.3521
 7659SOL    MW430410   0.886   0.961   4.121 -0.3480  0.3281 -0.1369
 7660SOL     OW30411   2.432   2.482   6.196  0.4874 -0.1450  0.3076
 7660SOL    HW230412   2.453   2.462   6.287 -2.5336  1.9442  1.6440
 7660SOL    HW330413   2.476   2.565   6.178 -0.4151  0.3975  0.5435
 7660SOL    MW430414   2.440   2.490   6.206  0.0386  0.1252 -0.8130
 7661SOL     OW30415   4.186   3.263   5.750 -0.3114  0.0826 -0.1507
 7661SOL    HW230416   4.131   3.298   5.819  1.1918 -0.4821  1.4200
 7661SOL    HW330417   4.259   3.324   5.744  0.4683 -0.8013  0.0363
 7661SOL    MW430418   4.189   3.275   5.758  0.4201 -0.3129 -0.7376
 7662SOL     OW30419   2.287   4.924   0.474 -0.3169  0.0096  0.3514
 7662SOL    HW230420   2.234   4.982   0.528  0.3298  1.5272 -0.5657
 7662SOL    HW330421   2.356   4.981   0.438  0.8799 -1.5234  0.1162
 7662SOL    MW430422   2.289   4.939   0.476 -0.1936 -0.4008  0.5775
 7663SOL     OW30423   4.459   3.713   0.451 -0.3220  0.3324  0.2270
 7663SOL    HW230424   4.474   3.703   0.545 -0.0639  0.9783  0.2569
 7663SOL    HW330425   4.477   3.805   0.433 -0.5673  0.2610 -0.4221
 7663SOL    MW430426   4.463   3.723   0.462  0.1608 -0.7550 -0.4013
 7664SOL     OW30427   2.842   0.404   5.476  0.0988  0.6944  0.2100
 7664SOL    HW230428   2.893   0.453   5.411  1.5589  1.1044  1.5803
 7664SOL    HW330429   2.862   0.312   5.459 -1.5120  0.6058 -1.4614
 7664SOL    MW430430   2.852   0.399   5.466  0.1945  0.1754  0.4491
 7665SOL     OW30431   1.494   6.014   2.989 -0.1688 -0.1128  0.0547
 7665SOL    HW230432   1.511   6.106   2.968 -1.5814  0.1531  0.0087
 7665SOL    HW330433   1.570   5.968   2.953  1.0177  1.1095  0.8878
 7665SOL    MW430434   1.507   6.020   2.981 -0.5209  0.5764 -0.5087
 7666SOL     OW30435   4.326   5.329   4.252  0.0740  0.2341 -0.2174
 7666SOL    HW230436   4.359   5.405   4.204  0.1559  0.8343  0.7606
 7666SOL    HW330437   4.243   5.307   4.209  0.3968  0.4309 -0.9527
 7666SOL    MW430438   4.319   5.336   4.240 -0.1239  0.1476 -0.1719
 7667SOL     OW30439   3.732   1.700   6.349 -0.0645  0.3251 -0.0471
 7667SOL    HW230440   3.676   1.626   6.326 -1.9329  1.3676  0.9090
 7667SOL    HW330441   3.671   1.773   6.364  1.5730  1.5996  0.7747
 7667SOL    MW430442   3.716   1.700   6.348  0.0508 -0.3781  0.9590
 7668SOL     OW30443   4.945   5.167   1.624  0.5214  0.9202 -0.2748
 7668SOL    HW230444   4.977   5.116   1.550  0.5192 -1.1172  1.0698
 7668SOL    HW330445   4.853   5.142   1.633  0.6649  0.7013  0.7384
 7668SOL    MW430446   4.937   5.157   1.616 -0.3966  0.4176 -0.7458
 7669SOL     OW30447   5.537   1.738   0.703  0.3675  0.1686 -0.4417
 7669SOL    HW230448   5.601   1.807   0.720  0.5288 -0.1008  0.0418
 7669SOL    HW330449   5.495   1.722   0.787  0.1332 -0.1318 -0.6123
 7669SOL    MW430450   5.540   1.745   0.716 -0.2983  0.2253  0.1552
 7670SOL     OW30451   4.730   5.916   4.247 -0.1390 -0.0747 -0.0276
 7670SOL    HW230452   4.703   5.824   4.243 -1.3550  0.3039 -0.9501
 7670SOL    HW330453   4.651   5.966   4.227  0.4694  1.1973  0.5616
 7670SOL    MW430454   4.716   5.911   4.244 -0.0823  0.3011  0.0011
 7671SOL     OW30455   3.401   4.811   0.847 -0.3639 -0.0622 -0.1923
 7671SOL    HW230456   3.315   4.779   0.873  1.1404 -2.8843  1.8355
 7671SOL    HW330457   3.442   4.737   0.803  1.0393  1.2305 -1.1646
 7671SOL    MW430458   3.395   4.797   0.845 -0.1846 -0.1078  0.3973
 7672SOL     OW30459   0.182   4.712   1.449  0.3540 -0.1921  0.2221
 7672SOL    HW230460   0.101   4.731   1.498  0.8658  0.2103  0.9258
 7672SOL    HW330461   0.222   4.640   1.498  0.9276  0.2899  0.4749
 7672SOL    MW430462   0.176   4.705   1.462 -0.4022  0.7304 -0.2236
 7673SOL     OW30463   1.292   5.858   1.394 -0.3871  0.4815  0.1258
 7673SOL    HW230464   1.273   5.950   1.416 -0.0770  0.2252  1.5581
 7673SOL    HW330465   1.324   5.820   1.476 -1.7409 -1.2499 -0.1027
 7673SOL    MW430466   1.294   5.865   1.408  0.1616 -0.0978 -0.3196
 7674SOL     OW30467   5.269   4.967   2.371 -0.0880  0.2441 -0.3758
 7674SOL    HW230468   5.214   4.899   2.332  2.2275 -1.6238 -0.5820
 7674SOL    HW330469   5.321   4.922   2.437 -0.2001  2.3410  1.2749
 7674SOL    MW430470   5.269   4.952   2.374 -0.2336  0.8592 -0.3841
 7675SOL     OW30471   6.422   6.419   5.672 -0.4710  0.3398  0.2058
 7675SOL    HW230472   6.389   6.509   5.666 -1.4686 -0.0519 -0.3833
 7675SOL    HW330473   6.354   6.371   5.718 -0.4344 -0.3450 -0.4363
 7675SOL    MW430474   6.409   6.425   5.677 -0.0596  0.1256 -0.1648
 7676SOL     OW30475   1.599   6.000   0.031  0.4386 -0.1304  0.0801
 7676SOL    HW230476   1.524   5.943   0.048 -1.2339  1.5748 -1.1127
 7676SOL    HW330477   1.661   5.980   0.100 -1.5953 -0.8274  1.8078
 7676SOL    MW430478   1.597   5.990   0.042  0.3848 -0.2140  0.0935
 7677SOL     OW30479   0.114   1.202   3.426 -0.0992 -0.0347  0.1496
 7677SOL    HW230480   0.191   1.146   3.415  0.4425  0.9083 -0.9781
 7677SOL    HW330481   0.102   1.244   3.342  0.3910  2.7003  1.3603
 7677SOL    MW430482   0.123   1.200   3.414  0.6324  0.1565  0.2370
 7678SOL     OW30483   5.968   0.570   1.640  0.1253  0.2630  0.5988
 7678SOL    HW230484   5.941   0.652   1.598 -1.1911 -0.9289 -1.0233
 7678SOL    HW330485   5.896   0.550   1.700 -0.4704 -0.6109 -0.3766
 7678SOL    MW430486   5.955   0.578   1.643  0.0489  0.2335 -0.3241
 7679SOL     OW30487   6.436   5.222   6.209 -0.6857  0.0087 -0.0092
 7679SOL    HW230488   6.493   5.218   6.287  0.2575  1.5865 -0.5673
 7679SOL    HW330489   6.412   5.131   6.193  0.5547 -0.5619  1.0915
 7679SOL    MW430490   6.441   5.210   6.217 -0.2740  0.1439 -0.3735
 7680SOL     OW30491   2.165   3.746   0.735 -0.0196 -0.5609  0.0059
 7680SOL    HW230492   2.260   3.758   0.727 -0.0384  1.3406  1.6425
 7680SOL    HW330493   2.151   3.732   0.829 -1.3871 -0.2179 -0.1272
 7680SOL    MW430494   2.176   3.746   0.746  0.8536  0.4079 -0.5149
 7681SOL     OW30495   2.816   0.591   2.699 -0.3767 -0.1331  0.3600
 7681SOL    HW230496   2.874   0.666   2.685  0.9383 -0.9754  1.1445
 7681SOL    HW330497   2.823   0.541   2.618  0.5018 -0.5517  0.6818
 7681SOL    MW430498   2.825   0.595   2.686 -0.0407  0.5550  0.2941
 7682SOL     OW30499   1.262   2.471   5.919  0.4363 -0.2360 -0.2717
 7682SOL    HW230500   1.342   2.455   5.870  0.0603 -0.3491 -0.8652
 7682SOL    HW330501   1.255   2.566   5.925  1.1739 -0.2365  0.7320
 7682SOL    MW430502   1.271   2.481   5.914  0.3610 -0.5617 -0.4702
 7683SOL     OW30503   5.496   5.259   0.804  0.5228  0.2012 -1.2263
 7683SOL    HW230504   5.566   5.272   0.740  0.1394  1.0062 -1.5004
 7683SOL    HW330505   5.433   5.329   0.785 -0.3139 -0.4573 -0.9234
 7683SOL    MW430506   5.497   5.270   0.793  0.0648  0.1803 -0.1289
 7684SOL     OW30507   0.655   3.932   2.156  0.1158  0.4476 -0.7714
 7684SOL    HW230508   0.595   3.919   2.082  0.9041  0.5876 -1.4451
 7684SOL    HW330509   0.670   4.027   2.157 -0.8558  0.6183  0.3531
 7684SOL    MW430510   0.649   3.943   2.146  0.1812  0.0103 -0.4033
 7685SOL     OW30511   1.122   1.215   1.167 -0.2194  0.1368  0.2967
 7685SOL    HW230512   1.111   1.120   1.159  3.7635 -0.3691 -1.4694
 7685SOL    HW330513   1.168   1.227   1.250 -0.8488  0.5968  0.5910
 7685SOL    MW430514   1.126   1.204   1.177 -0.3960 -0.3362  0.4442
 7686SOL     OW30515   4.271   5.485   3.212 -0.6609 -0.0642  0.0549
 7686SOL    HW230516   4.309   5.548   3.149 -0.0444 -0.6086 -0.1359
 7686SOL    HW330517   4.345   5.430   3.237 -1.1694 -0.6396  0.3112
 7686SOL    MW430518   4.286   5.486   3.207 -0.1726  0.0215 -0.5079
 7687SOL     OW30519   2.586   5.624   0.210  0.3959 -0.0775  0.4722
 7687SOL    HW230520   2.654   5.643   0.274  1.1502 -1.8852  0.2824
 7687SOL    HW330521   2.627   5.644   0.125 -0.5005  2.0338  0.4649
 7687SOL    MW430522   2.601   5.629   0.207 -0.2440 -0.2463  0.0442
 7688SOL     OW30523   1.285   4.835   1.556  0.1785 -0.2488 -0.5261
 7688SOL    HW230524   1.230   4.758   1.570  2.6220 -2.2242 -1.0493
 7688SOL    HW330525   1.306   4.865   1.645  1.2150 -1.8122 -0.1836
 7688SOL    MW430526   1.281   4.829   1.570 -0.8329 -0.4379  0.4169
 7689SOL     OW30527   2.078   6.427   5.207 -0.1117 -0.0612  0.5956
 7689SOL    HW230528   2.021   6.477   5.265 -0.4608 -0.0578  0.2450
 7689SOL    HW330529   2.125   6.492   5.156  0.1822 -0.0654  0.8518
 7689SOL    MW430530   2.077   6.442   5.208  0.5482  0.1982 -0.1096
 7690SOL     OW30531   3.531   2.252   5.004 -0.0157  0.6638 -0.4238
 7690SOL    HW230532   3.494   2.334   4.969 -1.2852  0.8553  1.2289
 7690SOL    HW330533   3.459   2.189   4.996  0.8457 -0.2233 -1.3716
 7690SOL    MW430534   3.516   2.255   4.998  0.2899  0.0039 -0.4879
 7691SOL     OW30535   2.783   0.150   5.201  0.1733  0.3298  0.6184
 7691SOL    HW230536   2.803   0.222   5.141  2.0170  0.3544  1.2164
 7691SOL    HW330537   2.828   0.074   5.164  1.0475  0.2645  1.7695
 7691SOL    MW430538   2.792   0.150   5.188  0.2727 -0.2050  0.3557
 7692SOL     OW30539   2.119   5.591   2.196  0.4296  0.1065  0.9911
 7692SOL    HW230540   2.071   5.516   2.159  0.4212 -0.1972  1.6010
 7692SOL    HW330541   2.172   5.553   2.266  2.1367  0.3214 -0.1317
 7692SOL    MW430542   2.119   5.576   2.200 -0.4932  0.6435  0.1275
 7693SOL     OW30543   1.561   2.507   2.703 -0.4748 -0.1272  0.6133
 7693SOL    HW230544   1.506   2.576   2.739  0.9063  0.9761  0.7086
 7693SOL    HW330545   1.515   2.478   2.624 -1.1169  0.8361  0.6228
 7693SOL    MW430546   1.548   2.512   2.697 -0.1393  0.3142 -0.5124
 7694SOL     OW30547   3.800   2.767   2.750 -0.1100  0.1313  0.1292
 7694SOL    HW230548   3.893   2.786   2.736  0.3287 -0.2914  2.1571
 7694SOL    HW330549   3.767   2.743   2.663  1.9976 -1.1311 -0.3861
 7694SOL    MW430550   3.808   2.766   2.737  0.0630  0.3526  0.0195
 7695SOL     OW30551   1.538   6.267   6.174  0.2560 -0.0651  0.0703
 7695SOL    HW230552   1.507   6.357   6.171 -1.2648 -0.5889 -1.7854
 7695SOL    HW330553   1.566   6.254   6.264 -2.6571  1.2415  1.2798
 7695SOL    MW430554   1.538   6.277   6.185 -0.1828 -0.3274  0.6581
 7696SOL     OW30555   1.066   6.018   3.103  0.4355  0.3247 -0.5132
 7696SOL    HW230556   1.008   6.015   3.179 -1.9256 -1.4911 -2.2242
 7696SOL    HW330557   1.154   6.018   3.140 -0.5761  1.5681  2.2110
 7696SOL    MW430558   1.070   6.018   3.118 -0.3867  0.2301  0.2466
 7697SOL     OW30559   2.695   6.126   3.403  0.2283  0.3700 -0.2528
 7697SOL    HW230560   2.685   6.079   3.486 -1.6152 -0.0376 -0.6518
 7697SOL    HW330561   2.765   6.080   3.357  0.1317 -0.4387  0.3918
 7697SOL    MW430562   2.703   6.114   3.408  0.2526  0.1185 -0.0569
 7698SOL     OW30563   4.121   2.253   2.497  0.0639 -0.5604  0.4477
 7698SOL    HW230564   4.206   2.239   2.537 -0.2212 -0.6065  1.0471
 7698SOL    HW330565   4.138   2.253   2.402  0.8812  0.4451  0.5842
 7698SOL    MW430566   4.134   2.251   2.489 -0.1386  0.5640  0.4913
 7699SOL     OW30567   4.452   3.791   5.585 -0.2868 -0.2097 -0.1230
 7699SOL    HW230568   4.440   3.827   5.673 -0.1325  2.1502 -1.0069
 7699SOL    HW330569   4.374   3.817   5.537  0.0357 -0.7094 -0.9456
 7699SOL    MW430570   4.440   3.799   5.590 -0.1779 -0.1549 -0.2118
 7700SOL     OW30571   0.077   0.468   1.445 -0.1120  0.2489  0.5922
 7700SOL    HW230572   0.172   0.457   1.451 -0.1322 -2.2676 -1.8004
 7700SOL    HW330573   0.043   0.414   1.517  0.2276  0.6970  1.0989
 7700SOL    MW430574   0.085   0.459   1.456  0.7300  0.4069  0.6795
 7701SOL     OW30575   5.052   5.198   1.165  0.8311  0.1993 -0.0161
 7701SOL    HW230576   5.003   5.194   1.083 -0.8891  0.3744  0.9353
 7701SOL    HW330577   5.042   5.289   1.195  1.1915  0.0722  0.5119
 7701SOL    MW430578   5.044   5.210   1.158 -0.3009  0.6744  0.5222
 7702SOL     OW30579   4.727   5.002   0.714 -0.2209 -0.0100 -0.1146
 7702SOL    HW230580   4.683   5.067   0.768  0.1279  0.9588 -0.9433
 7702SOL    HW330581   4.820   5.011   0.735 -0.1784 -0.3298 -0.1484
 7702SOL    MW430582   4.734   5.012   0.724 -0.1966 -0.3470  0.0794
 7703SOL     OW30583   5.770   5.211   1.584  0.3315  0.1070  0.3274
 7703SOL    HW230584   5.723   5.292   1.601  0.3502  0.2482 -0.2644
 7703SOL    HW330585   5.863   5.234   1.591  0.3656  0.3896 -0.8778
 7703SOL    MW430586   5.776   5.224   1.587  0.0254  0.1333 -0.2776
 7704SOL     OW30587   5.831   6.261   3.398 -0.2722 -0.4454 -0.2657
 7704SOL    HW230588   5.884   6.213   3.462 -0.3221  0.7561  0.7051
 7704SOL    HW330589   5.767   6.197   3.368 -0.1431 -1.0809  0.7676
 7704SOL    MW430590   5.830   6.246   3.402 -0.1129 -0.3311 -0.6492
 7705SOL     OW30591   5.615   2.745   0.456 -0.0160 -0.3534 -0.4414
 7705SOL    HW230592   5.545   2.800   0.492  0.5110  1.3077 -1.7760
 7705SOL    HW330593   5.569   2.680   0.402 -0.5758  0.4454 -0.9551
 7705SOL    MW430594   5.600   2.744   0.453  0.0405 -0.3103  0.2513
 7706SOL     OW30595   4.110   1.049   5.252 -0.3251 -0.0835  0.2203
 7706SOL    HW230596   4.036   1.032   5.193 -0.2167 -0.6271  0.2376
 7706SOL    HW330597   4.100   1.141   5.276  0.4091  0.5625 -1.7596
 7706SOL    MW430598   4.099   1.059   5.247 -0.3750 -0.1895  0.3125
 7707SOL     OW30599   2.344   5.701   2.553  0.3099  0.7549 -0.0237
 7707SOL    HW230600   2.406   5.728   2.485  0.8789  0.7786  0.4940
 7707SOL    HW330601   2.301   5.624   2.517  1.1302  0.3323 -0.1200
 7707SOL    MW430602   2.347   5.694   2.539 -0.6260  0.8522 -0.2431
 7708SOL     OW30603   1.539   5.233   1.853  0.4834  0.5540  0.0710
 7708SOL    HW230604   1.464   5.236   1.913 -0.4370  0.3260 -1.0480
 7708SOL    HW330605   1.612   5.265   1.906  0.1270 -1.3978  1.9318
 7708SOL    MW430606   1.539   5.237   1.868 -0.7295 -0.3360 -0.1628
 7709SOL     OW30607   1.042   1.484   6.118  0.1680 -0.6591  0.0618
 7709SOL    HW230608   1.014   1.405   6.072 -0.8842 -0.6541  0.6731
 7709SOL    HW330609   1.030   1.464   6.210 -0.7097  0.4247  0.2005
 7709SOL    MW430610   1.037   1.471   6.124 -0.2529 -0.3987  0.1798
 7710SOL     OW30611   2.860   6.356   0.019  0.4069  0.1756  0.2400
 7710SOL    HW230612   2.847   6.432  -0.037 -0.8213  1.2981  1.9674
 7710SOL    HW330613   2.933   6.380   0.076 -0.4093  0.3473  1.2301
 7710SOL    MW430614   2.868   6.369   0.019 -0.0091  0.1216 -0.2856
 7711SOL     OW30615   6.222   2.797   0.427  0.2094  0.2113  0.1285
 7711SOL    HW230616   6.182   2.735   0.489  1.2316 -0.2816  0.3130
 7711SOL    HW330617   6.159   2.802   0.355  0.6364 -2.0393 -0.5007
 7711SOL    MW430618   6.208   2.789   0.426 -0.2106  0.7270  0.9364
 7712SOL     OW30619   4.127   6.304   3.213 -0.1307 -0.2461 -0.3164
 7712SOL    HW230620   4.124   6.209   3.219 -0.0728 -0.4017 -2.1676
 7712SOL    HW330621   4.051   6.334   3.263  0.2469 -1.2161  0.8603
 7712SOL    MW430622   4.117   6.295   3.220  0.8502 -0.6236  0.4762
 7713SOL     OW30623   6.375   5.519   2.104  0.0388 -0.6838 -0.0636
 7713SOL    HW230624   6.377   5.451   2.172 -0.9381 -2.5658 -1.7811
 7713SOL    HW330625   6.373   5.469   2.022 -0.1154  1.4663 -1.4257
 7713SOL    MW430626   6.375   5.503   2.102  0.1134 -0.6256  0.1994
 7714SOL     OW30627   3.572   2.855   3.824  0.7876  0.2334  0.2743
 7714SOL    HW230628   3.660   2.827   3.796  0.9333  0.0965  0.8382
 7714SOL    HW330629   3.555   2.934   3.774  0.9746 -0.0806 -0.2993
 7714SOL    MW430630   3.582   2.862   3.814  0.1046  0.5054  0.7475
 7715SOL     OW30631   2.088   4.980   6.168  0.4063  0.1441  0.1739
 7715SOL    HW230632   2.119   5.010   6.083  0.1222  0.4517  0.1787
 7715SOL    HW330633   2.165   4.986   6.225  0.5401  0.1461 -0.0061
 7715SOL    MW430634   2.103   4.984   6.164 -0.4479 -0.1646 -0.1427
 7716SOL     OW30635   0.577   0.188   5.858  0.1304  0.1683 -0.5059
 7716SOL    HW230636   0.535   0.103   5.843  0.0496  0.3927 -1.6405
 7716SOL    HW330637   0.505   0.251   5.849 -0.2521  0.2625  2.3970
 7716SOL    MW430638   0.562   0.185   5.855 -0.3245 -0.4470  0.4189
 7717SOL     OW30639   2.417   1.698   4.344  0.2850 -0.0396 -0.1062
 7717SOL    HW230640   2.412   1.725   4.253 -0.0103 -0.1679 -0.1295
 7717SOL    HW330641   2.401   1.603   4.342  0.6410 -0.1052  0.0407
 7717SOL    MW430642   2.414   1.689   4.332  0.4709  0.4637  0.2273
 7718SOL     OW30643   4.829   3.875   6.067 -0.6537  0.2025  0.0444
 7718SOL    HW230644   4.799   3.937   6.000 -1.9918 -1.2067 -0.7425
 7718SOL    HW330645   4.807   3.789   6.031  1.5188 -0.7865  0.9087
 7718SOL    MW430646   4.822   3.872   6.053  0.0888 -0.1180 -0.4015
 7719SOL     OW30647   4.743   3.728   3.954 -0.0605  0.3423 -0.0794
 7719SOL    HW230648   4.742   3.796   4.022  1.6520 -0.1900  0.5401
 7719SOL    HW330649   4.816   3.753   3.897  0.5090 -0.8597  0.0899
 7719SOL    MW430650   4.753   3.740   3.956  0.4269  0.1655 -0.2560
 7720SOL     OW30651   3.539   3.705   6.360  0.3679  0.8379 -0.1692
 7720SOL    HW230652   3.597   3.684   6.287 -0.5150  1.0420 -0.9569
 7720SOL    HW330653   3.536   3.801   6.361  0.0645  0.8292 -0.1272
 7720SOL    MW430654   3.546   3.715   6.350 -0.4413  0.1420 -0.2071
 7721SOL     OW30655   2.457   0.398   2.496 -0.4468  0.9552 -0.2806
 7721SOL    HW230656   2.478   0.466   2.561 -1.9129  0.8533  0.3266
 7721SOL    HW330657   2.364   0.409   2.479 -0.1486  0.8197 -2.2172
 7721SOL    MW430658   2.448   0.409   2.503 -0.2927 -0.0851  0.4741
 7722SOL     OW30659   1.895   3.383   1.990 -0.2535  0.0837  0.0434
 7722SOL    HW230660   1.935   3.470   1.998  0.6961 -0.3999  0.9065
 7722SOL    HW330661   1.805   3.400   1.963 -0.1687  1.3498  0.4869
 7722SOL    MW430662   1.889   3.397   1.987  0.4215 -0.2231 -0.0645
 7723SOL     OW30663   1.067   5.723   4.224 -0.2665 -0.2471 -0.1171
 7723SOL    HW230664   1.013   5.798   4.250 -0.4372 -0.9626  1.7279
 7723SOL    HW330665   1.155   5.759   4.212 -0.3777  0.2742  0.6012
 7723SOL    MW430666   1.071   5.737   4.226 -0.1558 -0.4510 -0.4146
 7724SOL     OW30667   5.873   1.578   4.489 -0.2735  0.2903 -0.1552
 7724SOL    HW230668   5.932   1.627   4.547  0.5137  0.5403 -1.1424
 7724SOL    HW330669   5.896   1.608   4.401 -0.3170 -1.2871 -0.7224
 7724SOL    MW430670   5.884   1.589   4.485  0.0498  0.2875 -0.1974
 7725SOL     OW30671   6.162   4.253   4.327 -0.2125  0.4171  0.2726
 7725SOL    HW230672   6.254   4.237   4.310 -0.3199  1.3359 -1.4529
 7725SOL    HW330673   6.117   4.178   4.288 -0.3030  1.2660 -1.3720
 7725SOL    MW430674   6.168   4.241   4.320 -0.0093  0.0028  0.1148
 7726SOL     OW30675   0.456   3.671   3.096 -0.3161  0.4728  0.0655
 7726SOL    HW230676   0.414   3.595   3.136 -1.9358  0.4854 -1.4964
 7726SOL    HW330677   0.453   3.738   3.164 -0.4692 -0.3180  0.8643
 7726SOL    MW430678   0.450   3.670   3.111  0.2698  0.4007  0.0075
 7727SOL     OW30679   5.360   4.090   2.727 -0.0212  0.5403  0.4405
 7727SOL    HW230680   5.382   3.998   2.712 -0.1482  0.6623 -0.5696
 7727SOL    HW330681   5.371   4.131   2.642 -0.8214  1.2918  0.6882
 7727SOL    MW430682   5.364   4.083   2.714  0.4127  0.0338  1.0614
 7728SOL     OW30683   5.684   4.869   3.352 -0.1465  0.3918  0.2062
 7728SOL    HW230684   5.736   4.886   3.273 -0.1349 -0.2777  0.0712
 7728SOL    HW330685   5.676   4.955   3.393  2.4550  0.3224  1.0773
 7728SOL    MW430686   5.690   4.883   3.347 -0.0891  0.2035 -0.3244
 7729SOL     OW30687   2.139   4.569   2.706  0.0525  0.2648 -0.1388
 7729SOL    HW230688   2.072   4.636   2.715 -2.7918 -2.4090  0.1716
 7729SOL    HW330689   2.178   4.562   2.793  2.2394  3.1119 -0.7468
 7729SOL    MW430690   2.135   4.577   2.719 -0.0507  0.2210 -0.3696
 7730SOL     OW30691   3.237   3.615   5.814  0.1808  0.6341 -0.1373
 7730SOL    HW230692   3.150   3.637   5.848  1.0423  1.3000  1.7966
 7730SOL    HW330693   3.224   3.605   5.720 -1.6032  2.8575 -0.2177
 7730SOL    MW430694   3.224   3.617   5.806  0.1322 -0.9241 -0.4364
 7731SOL     OW30695   3.637   4.019   3.715 -0.4730  0.2102 -0.4159
 7731SOL    HW230696   3.640   4.068   3.797 -1.1622  0.0987 -0.3154
 7731SOL    HW330697   3.625   4.085   3.647 -1.6442  0.1881 -0.2600
 7731SOL    MW430698   3.636   4.034   3.717  0.2222  0.0626 -0.6099
 7732SOL     OW30699   1.865   5.819   0.959  0.0471  0.2984  0.0007
 7732SOL    HW230700   1.846   5.749   0.896 -0.1139  0.0619  0.3087
 7732SOL    HW330701   1.778   5.851   0.985 -0.0114 -1.3107  2.0068
 7732SOL    MW430702   1.851   5.814   0.954 -0.2070  0.8902  0.1748
 7733SOL     OW30703   2.126   2.038   0.212  0.7087 -0.7825 -0.4470
 7733SOL    HW230704   2.103   2.067   0.300  0.9307  0.5414 -0.8012
 7733SOL    HW330705   2.184   1.963   0.226 -0.6131 -1.6630  0.4927
 7733SOL    MW430706   2.131   2.032   0.225  0.0766  0.2421 -0.4599
 7734SOL     OW30707   2.265   2.804   1.996 -0.3312  0.3677 -0.1266
 7734SOL    HW230708   2.324   2.795   1.921  1.8306 -1.6473  1.6698
 7734SOL    HW330709   2.300   2.879   2.044  1.0696 -1.0351  1.1179
 7734SOL    MW430710   2.278   2.813   1.992 -0.1107  0.3041  0.3374
 7735SOL     OW30711   1.228   1.046   0.775 -0.5174  0.4429 -0.3376
 7735SOL    HW230712   1.265   1.034   0.687  0.7093 -1.1538  0.3438
 7735SOL    HW330713   1.135   1.023   0.765  0.1587 -2.4281 -0.7156
 7735SOL    MW430714   1.220   1.041   0.762 -0.2588 -0.5418  0.0655
 7736SOL     OW30715   1.023   2.699   3.205  0.1747 -0.5132  0.3864
 7736SOL    HW230716   0.983   2.613   3.188 -2.1011  0.0539  2.4637
 7736SOL    HW330717   1.004   2.717   3.297  4.8039  0.1442  1.4623
 7736SOL    MW430718   1.016   2.690   3.215  0.2918 -0.2139 -0.2889
 7737SOL     OW30719   0.405   4.343   3.293  0.7802 -0.1616  0.1031
 7737SOL    HW230720   0.430   4.425   3.336  1.1043  0.1439 -0.6467
 7737SOL    HW330721   0.341   4.304   3.352  2.0428 -0.3173  1.4223
 7737SOL    MW430722   0.400   4.349   3.306 -0.0466 -0.0918  0.5006
 7738SOL     OW30723   2.006   4.784   4.578  0.7496  0.2782 -0.1870
 7738SOL    HW230724   1.958   4.774   4.496  1.7639 -1.3133 -0.6461
 7738SOL    HW330725   2.078   4.721   4.571  0.1995 -0.7792  2.4221
 7738SOL    MW430726   2.010   4.774   4.566  0.3440 -0.6097 -0.1993
 7739SOL     OW30727   5.775   6.212   2.100 -0.1911  0.1379 -0.0863
 7739SOL    HW230728   5.741   6.298   2.076 -1.2810 -0.0866  0.5845
 7739SOL    HW330729   5.744   6.197   2.189 -0.4098 -1.1455 -0.3525
 7739SOL    MW430730   5.767   6.221   2.109  0.0397  0.0394 -0.4830
 7740SOL     OW30731   3.192   3.557   5.537 -0.1069  0.4777 -0.2782
 7740SOL    HW230732   3.233   3.491   5.482 -0.5308  0.0626 -0.1020
 7740SOL    HW330733   3.163   3.625   5.476 -1.1463 -0.2741 -0.6487
 7740SOL    MW430734   3.193   3.557   5.522  0.3192  0.1508  0.0013
 7741SOL     OW30735   6.056   5.138   3.191  0.0165  0.0351  0.0478
 7741SOL    HW230736   6.066   5.189   3.110 -0.4463  0.4261  0.2396
 7741SOL    HW330737   5.982   5.081   3.174  0.1092 -0.0978  0.0874
 7741SOL    MW430738   6.048   5.137   3.178 -1.1249 -0.2534 -0.0338
 7742SOL     OW30739   5.382   4.809   6.200  0.1562 -0.0597 -0.1396
 7742SOL    HW230740   5.343   4.869   6.137  1.7565  1.0098 -0.1664
 7742SOL    HW330741   5.399   4.863   6.277  1.7454 -0.4248 -0.2076
 7742SOL    MW430742   5.379   4.824   6.202  0.3518 -0.0771  0.8528
 7743SOL     OW30743   2.716   6.170   5.806 -0.0478  0.2657  0.2163
 7743SOL    HW230744   2.720   6.262   5.779  0.2078 -0.6267 -3.4317
 7743SOL    HW330745   2.634   6.138   5.768  1.8483 -1.8923 -2.5925
 7743SOL    MW430746   2.706   6.178   5.797  0.0040 -0.3533  0.5854
 7744SOL     OW30747   2.241   1.553   1.292  0.4224  0.7206 -0.4997
 7744SOL    HW230748   2.268   1.566   1.383  0.5934 -0.7169 -0.3192
 7744SOL    HW330749   2.322   1.526   1.248 -0.1175 -0.9175 -0.5484
 7744SOL    MW430750   2.255   1.551   1.298 -0.0768  0.0216  0.0110
 7745SOL     OW30751   5.772   5.500   1.848 -0.0383 -0.2556 -0.1430
 7745SOL    HW230752   5.724   5.484   1.767  0.0493  2.6616 -0.8982
 7745SOL    HW330753   5.706   5.534   1.909  0.4434  0.6599 -0.1087
 7745SOL    MW430754   5.757   5.503   1.845 -0.2479  0.5458  0.3877
 7746SOL     OW30755   2.891   5.019   0.240  0.7044 -0.0930 -0.4109
 7746SOL    HW230756   2.834   4.958   0.193  1.5624 -1.0104 -0.2917
 7746SOL    HW330757   2.834   5.061   0.305 -0.0050 -0.4134 -0.8255
 7746SOL    MW430758   2.876   5.017   0.243 -0.2354  0.2385 -0.3088
 7747SOL     OW30759   5.744   3.205   4.951 -0.6184 -0.1227  0.0878
 7747SOL    HW230760   5.748   3.294   4.986  3.3383  0.4574 -1.2893
 7747SOL    HW330761   5.817   3.160   4.994  1.0197 -0.9312 -3.2375
 7747SOL    MW430762   5.754   3.211   4.961  0.0728  0.0170 -0.1352
 7748SOL     OW30763   3.771   1.536   2.353 -0.2670  0.3035 -0.0925
 7748SOL    HW230764   3.722   1.606   2.311  1.8090  2.3754  0.7500
 7748SOL    HW330765   3.816   1.492   2.281 -1.1021  0.1973 -0.5638
 7748SOL    MW430766   3.771   1.539   2.338 -0.4050 -0.7884 -0.3426
 7749SOL     OW30767   4.774   6.090   4.741 -0.2096  0.7202  0.6288
 7749SOL    HW230768   4.789   6.034   4.665 -0.4760  0.3616  0.8422
 7749SOL    HW330769   4.848   6.072   4.799  0.3244  1.4374  0.2033
 7749SOL    MW430770   4.786   6.080   4.738 -0.1260 -0.3076 -0.0016
 7750SOL     OW30771   2.662   4.245   6.278  0.4382 -0.5012  0.1286
 7750SOL    HW230772   2.718   4.303   6.227  1.5470 -0.7483  1.0327
 7750SOL    HW330773   2.638   4.296   6.356 -1.6187  0.0424 -0.7795
 7750SOL    MW430774   2.666   4.260   6.282  0.4473 -0.0758  0.5852
 7751SOL     OW30775   6.387   1.112   5.231  0.3569 -0.3493 -0.1608
 7751SOL    HW230776   6.405   1.190   5.283  0.8966  0.1579 -1.0862
 7751SOL    HW330777   6.296   1.124   5.202  1.0503  0.9785 -1.9803
 7751SOL    MW430778   6.377   1.124   5.234  0.2066 -0.4521  0.7831
 7752SOL     OW30779   1.935   6.293   0.210  0.0816 -0.0812 -0.0732
 7752SOL    HW230780   1.960   6.245   0.131 -1.5424 -1.4317  0.1874
 7752SOL    HW330781   1.926   6.384   0.181  1.2875 -0.2308 -1.0064
 7752SOL    MW430782   1.937   6.299   0.196 -0.1882  0.2091  0.3761
 7753SOL     OW30783   0.590   3.132   1.675 -0.2619  0.0181 -0.3296
 7753SOL    HW230784   0.506   3.123   1.630 -1.2358 -1.4333  1.6242
 7753SOL    HW330785   0.571   3.187   1.751  0.7437  0.2833 -0.2497
 7753SOL    MW430786   0.576   3.138   1.679 -0.1617  0.3837 -0.3644
 7754SOL     OW30787   5.744   3.354   5.207 -0.4881 -0.1470  0.3143
 7754SOL    HW230788   5.730   3.359   5.301 -1.8471 -1.8020  0.2391
 7754SOL    HW330789   5.838   3.336   5.198 -0.2037  0.7435  1.2981
 7754SOL    MW430790   5.755   3.352   5.218 -1.1806  0.0021 -0.3481
 7755SOL     OW30791   5.954   1.362   1.791  0.0595  0.4588 -0.1017
 7755SOL    HW230792   5.937   1.416   1.868 -2.0635  0.3891 -0.4768
 7755SOL    HW330793   5.966   1.274   1.825  0.4610  0.6415  0.2428
 7755SOL    MW430794   5.953   1.358   1.806 -0.0296  0.0845  0.6619
 7756SOL     OW30795   1.011   0.771   4.583  0.1494 -0.2623 -0.2060
 7756SOL    HW230796   1.002   0.861   4.552  0.0027 -0.5928 -1.1587
 7756SOL    HW330797   0.921   0.742   4.597  0.2390  0.3781  2.0881
 7756SOL    MW430798   0.998   0.779   4.581  0.2612  0.4339  0.2315
 7757SOL     OW30799   1.372   5.934   2.238  0.2887 -0.2113  0.1856
 7757SOL    HW230800   1.403   5.916   2.149  0.3657  1.4236 -0.1455
 7757SOL    HW330801   1.287   5.975   2.226  0.4627  0.3673  0.8352
 7757SOL    MW430802   1.365   5.937   2.225 -0.1503  0.4215 -0.4127
 7758SOL     OW30803   5.809   2.822   4.767 -0.0619  0.2517  0.0464
 7758SOL    HW230804   5.796   2.777   4.683  0.6440  1.4368 -0.7310
 7758SOL    HW330805   5.722   2.821   4.808 -0.5890  0.2611 -1.0181
 7758SOL    MW430806   5.796   2.816   4.761 -0.8146  0.3226  0.6901
 7759SOL     OW30807   3.044   4.190   0.045  0.5703 -0.0919  0.5647
 7759SOL    HW230808   3.132   4.207   0.078  0.3525  0.9242  0.6345
 7759SOL    HW330809   2.992   4.265   0.073 -0.5512 -1.0974  1.3172
 7759SOL    MW430810   3.049   4.202   0.053  0.6128  0.7174  0.3286
 7760SOL     OW30811   6.369   0.033   1.519  0.4826  0.0192  0.4776
 7760SOL    HW230812   6.384  -0.005   1.433 -0.6526  0.8625 -0.1185
 7760SOL    HW330813   6.442   0.002   1.573  2.5391  1.3888 -1.3691
 7760SOL    MW430814   6.380   0.024   1.515 -0.4202 -0.3324  0.9922
 7761SOL     OW30815   5.211   4.281   5.737  0.4774  0.0896 -0.6998
 7761SOL    HW230816   5.212   4.191   5.705 -2.0765 -0.2811  0.0969
 7761SOL    HW330817   5.185   4.274   5.829 -0.6105  1.6636 -0.8477
 7761SOL    MW430818   5.208   4.268   5.745  0.2966  0.3584 -0.0524
 7762SOL     OW30819   3.486   2.890   4.352  0.6934  0.0393 -0.0215
 7762SOL    HW230820   3.500   2.883   4.258 -0.6098  2.5634 -0.5107
 7762SOL    HW330821   3.474   2.800   4.382 -2.7399 -0.7445 -2.9784
 7762SOL    MW430822   3.486   2.878   4.344  0.3201 -0.4519  0.0607
 7763SOL     OW30823   5.214   4.818   4.442 -0.4645 -0.2240  0.3292
 7763SOL    HW230824   5.261   4.739   4.417 -1.5623 -0.3335 -1.6320
 7763SOL    HW330825   5.252   4.887   4.387 -0.8964  0.1932  0.5439
 7763SOL    MW430826   5.225   4.817   4.432 -0.1558  0.7587  0.5703
 7764SOL     OW30827   5.805   1.965   2.591  0.1425  0.3081 -0.2823
 7764SOL    HW230828   5.722   2.008   2.609 -0.3007 -0.8869  0.6781
 7764SOL    HW330829   5.806   1.953   2.496  0.1784  2.1639 -0.5460
 7764SOL    MW430830   5.794   1.969   2.581  0.3797 -0.0150  0.1981
 7765SOL     OW30831   1.288   5.977   2.811 -0.2502  0.5894 -0.0628
 7765SOL    HW230832   1.354   5.961   2.878  1.6008 -0.9676 -2.1070
 7765SOL    HW330833   1.330   6.039   2.751 -1.3104  0.8703 -0.5290
 7765SOL    MW430834   1.302   5.983   2.812 -0.1496  0.1526  0.1075
 7766SOL     OW30835   0.063   0.634   2.490 -0.1871 -0.7629 -0.1093
 7766SOL    HW230836   0.124   0.640   2.417 -0.2252  0.0550 -0.0797
 7766SOL    HW330837   0.105   0.682   2.562 -1.1733  0.4530 -0.3164
 7766SOL    MW430838   0.076   0.641   2.490  0.4432  0.4216 -0.0952
 7767SOL     OW30839   1.630   5.068   1.499 -0.2977 -0.0178 -0.3369
 7767SOL    HW230840   1.618   5.035   1.410  3.6178  2.3806 -2.0292
 7767SOL    HW330841   1.594   5.156   1.497  0.0554  0.1521  0.3646
 7767SOL    MW430842   1.624   5.075   1.487 -0.5949 -0.2851  0.0638
 7768SOL     OW30843   3.872   1.096   6.158 -0.1845 -0.4620  0.3705
 7768SOL    HW230844   3.965   1.119   6.154 -0.2335  0.2772  2.2978
 7768SOL    HW330845   3.826   1.177   6.135 -0.3358 -0.4351  0.7504
 7768SOL    MW430846   3.878   1.110   6.155  0.1767  0.1176 -1.0117
 7769SOL     OW30847   2.146   0.039   4.143  0.0042  0.4662 -0.0847
 7769SOL    HW230848   2.074   0.099   4.125 -0.4665 -0.0705 -0.0085
 7769SOL    HW330849   2.191   0.030   4.059 -1.5024 -1.1283 -0.7872
 7769SOL    MW430850   2.142   0.046   4.129  0.1564 -0.0432  0.3271
 7770SOL     OW30851   2.167   0.321   5.683 -0.0631 -0.2515 -0.0627
 7770SOL    HW230852   2.117   0.302   5.603 -1.2348 -0.6119  0.7207
 7770SOL    HW330853   2.100   0.330   5.751  1.0027 -3.1873  1.5533
 7770SOL    MW430854   2.151   0.320   5.681 -0.2313  0.0103  0.3610
 7771SOL     OW30855   6.003   4.587   0.842 -0.2905  0.6558 -0.4691
 7771SOL    HW230856   6.009   4.641   0.921 -2.7617  0.3559 -0.0121
 7771SOL    HW330857   6.095   4.569   0.819  0.5241  2.0527  1.4024
 7771SOL    MW430858   6.016   4.592   0.850 -0.3722 -0.4611  0.0741
 7772SOL     OW30859   3.548   1.367   2.023 -0.1708 -0.4754  0.1978
 7772SOL    HW230860   3.507   1.454   2.029  1.0962  0.0778  1.5395
 7772SOL    HW330861   3.634   1.384   1.985  0.1970 -1.1022  0.7339
 7772SOL    MW430862   3.554   1.381   2.019  0.0196 -0.1434  0.0467
 7773SOL     OW30863   1.109   2.143   3.690  0.1818 -0.1805 -0.5890
 7773SOL    HW230864   1.139   2.220   3.738 -0.2794 -1.4883  1.9826
 7773SOL    HW330865   1.024   2.168   3.654  0.7477  0.9911 -1.1533
 7773SOL    MW430866   1.102   2.156   3.691 -0.5513 -0.5780 -1.0736
 7774SOL     OW30867   5.578   2.544   0.906 -0.3331 -0.4437  0.0594
 7774SOL    HW230868   5.626   2.620   0.940 -0.4211 -0.2308 -0.2838
 7774SOL    HW330869   5.549   2.572   0.819  0.5354 -1.2439 -0.5061
 7774SOL    MW430870   5.581   2.558   0.899 -0.7197  0.1527  0.1155
 7775SOL     OW30871   2.535   2.711   4.805  0.5225  0.2267  0.0283
 7775SOL    HW230872   2.529   2.617   4.788  0.9546  0.1007  0.5716
 7775SOL    HW330873   2.475   2.726   4.878 -0.6161  0.6169 -0.9434
 7775SOL    MW430874   2.526   2.701   4.812 -0.0259  0.0976  0.5329
 7776SOL     OW30875   2.639   4.470   5.727  0.1182  0.0964 -0.0554
 7776SOL    HW230876   2.683   4.413   5.790  2.2176  0.1263 -1.3920
 7776SOL    HW330877   2.679   4.557   5.741 -0.7733  0.5330 -0.1550
 7776SOL    MW430878   2.650   4.474   5.737 -0.0421 -0.2972 -0.0292
 7777SOL     OW30879   2.322   5.308   4.858  0.7102  0.1671 -0.2807
 7777SOL    HW230880   2.280   5.316   4.773 -0.0043 -0.8632 -0.0505
 7777SOL    HW330881   2.283   5.229   4.897  2.2553 -0.3580  0.2952
 7777SOL    MW430882   2.312   5.299   4.852 -0.1392  0.0891  0.0394
 7778SOL     OW30883   5.725   5.905   0.514  0.0618 -0.3670  0.0955
 7778SOL    HW230884   5.682   5.890   0.599 -0.5939 -0.5970 -0.2647
 7778SOL    HW330885   5.654   5.896   0.450  0.1622  1.6915 -0.3623
 7778SOL    MW430886   5.710   5.902   0.517 -0.4024 -0.3960 -0.5654
 7779SOL     OW30887   0.838   6.256   0.128 -0.2879  0.0671 -0.1682
 7779SOL    HW230888   0.876   6.264   0.040  1.1177 -0.4798  0.3507
 7779SOL    HW330889   0.847   6.163   0.150 -0.4398  0.2312  0.6229
 7779SOL    MW430890   0.844   6.245   0.119 -0.4323 -0.7899 -1.1356
 7780SOL     OW30891   6.296   5.145   4.332  0.0968  0.0216 -0.1157
 7780SOL    HW230892   6.383   5.183   4.320 -0.0693 -0.1201 -2.2169
 7780SOL    HW330893   6.313   5.055   4.361  0.7377 -0.4004 -1.6814
 7780SOL    MW430894   6.310   5.138   4.334  0.1423 -0.3348  0.2044
 7781SOL     OW30895   3.285   1.512   4.966 -0.2337 -0.1769  0.2026
 7781SOL    HW230896   3.240   1.446   5.017 -1.5349  0.2783 -0.3178
 7781SOL    HW330897   3.298   1.472   4.880  1.6053 -0.7982  0.7145
 7781SOL    MW430898   3.281   1.498   4.961 -0.3710 -0.0860 -0.1571
 7782SOL     OW30899   2.065   6.006   3.346  0.2057  0.3823  0.0111
 7782SOL    HW230900   1.980   5.967   3.325  0.3331 -0.5720  1.1717
 7782SOL    HW330901   2.129   5.944   3.312  0.4480  0.9813 -0.6438
 7782SOL    MW430902   2.062   5.993   3.339  0.3543 -0.0523 -0.5213
 7783SOL     OW30903   0.928   1.303   2.273  0.1432  0.4502  0.2276
 7783SOL    HW230904   0.913   1.245   2.199 -0.0945  0.7679  0.0241
 7783SOL    HW330905   0.854   1.286   2.332  1.1591 -0.9592  1.1501
 7783SOL    MW430906   0.916   1.294   2.271 -0.2145 -0.4850  0.3744
 7784SOL     OW30907   3.646   2.895   5.634  0.6491  0.1066  0.5307
 7784SOL    HW230908   3.646   2.803   5.606 -0.2666 -0.4453  2.2240
 7784SOL    HW330909   3.553   2.919   5.635  0.7977  0.6809  1.2442
 7784SOL    MW430910   3.634   2.886   5.630  0.0230  0.0939  0.2727
 7785SOL     OW30911   1.049   3.744   5.555 -0.4620  0.4351 -0.5682
 7785SOL    HW230912   1.103   3.725   5.478 -0.1281 -2.7012  0.3061
 7785SOL    HW330913   0.992   3.667   5.563  1.4101 -0.8252  3.8057
 7785SOL    MW430914   1.049   3.731   5.546  0.2210 -0.1399  0.2711
 7786SOL     OW30915   1.914   0.153   3.615 -0.0543 -0.1696 -0.4519
 7786SOL    HW230916   1.828   0.132   3.649  1.0929 -2.6087  1.2338
 7786SOL    HW330917   1.971   0.155   3.692  1.4921  0.8765 -1.5558
 7786SOL    MW430918   1.910   0.150   3.629 -0.3934  0.2225 -0.4824
 7787SOL     OW30919   0.745   1.974   2.347 -0.1124 -0.0288  0.0782
 7787SOL    HW230920   0.841   1.971   2.340  0.1851 -0.9561  3.0963
 7787SOL    HW330921   0.718   1.883   2.343 -0.5780  0.0122  1.4805
 7787SOL    MW430922   0.754   1.962   2.346  0.2913 -0.5602  0.7637
 7788SOL     OW30923   2.117   4.598   0.625 -0.5011 -0.0233  0.3727
 7788SOL    HW230924   2.207   4.595   0.594 -0.5654 -0.0464  0.1912
 7788SOL    HW330925   2.065   4.618   0.547 -0.8255 -1.6730  0.1488
 7788SOL    MW430926   2.122   4.601   0.611 -0.0442 -0.6796  0.2593
 7789SOL     OW30927   4.773   4.127   3.134 -0.1619  0.5208 -0.1767
 7789SOL    HW230928   4.809   4.158   3.217  1.1318 -3.6757  1.0745
 7789SOL    HW330929   4.680   4.110   3.152 -1.1801  4.0905 -1.1841
 7789SOL    MW430930   4.765   4.129   3.147 -0.4546  0.6089  0.4704
 7790SOL     OW30931   0.682   5.815   1.846  0.1938  0.1285 -0.1935
 7790SOL    HW230932   0.631   5.882   1.891 -0.0242 -0.5420  0.5769
 7790SOL    HW330933   0.704   5.752   1.914  4.3465  1.6665  0.1600
 7790SOL    MW430934   0.678   5.816   1.861  0.0455  0.1652  0.7557
 7791SOL     OW30935   0.677   4.148   4.164 -0.0541 -0.0588 -0.7339
 7791SOL    HW230936   0.678   4.222   4.103  0.8169  1.1927  0.7266
 7791SOL    HW330937   0.585   4.138   4.187 -0.1884  0.5406 -0.9779
 7791SOL    MW430938   0.665   4.157   4.159 -0.0460  0.0352  0.1226
 7792SOL     OW30939   2.985   1.456   5.530 -0.1466  0.4073 -0.7152
 7792SOL    HW230940   3.061   1.451   5.588  0.0019  0.7908 -0.8747
 7792SOL    HW330941   2.959   1.548   5.533 -0.4076  0.3413 -0.9178
 7792SOL    MW430942   2.991   1.468   5.538  0.4101 -0.1190  0.3100
 7793SOL     OW30943   1.975   2.946   4.535 -0.1226  0.3445  0.1491
 7793SOL    HW230944   1.896   2.893   4.539 -0.3562  0.5229 -1.5385
 7793SOL    HW330945   2.018   2.919   4.454  2.5446 -1.0988  1.8815
 7793SOL    MW430946   1.971   2.935   4.525 -0.6041  0.1022  0.2054
 7794SOL     OW30947   0.886   2.706   5.715  0.4161 -0.1446 -0.4113
 7794SOL    HW230948   0.900   2.716   5.809 -0.1650  0.2494 -0.3625
 7794SOL    HW330949   0.794   2.683   5.707  0.6102 -0.7726 -0.8483
 7794SOL    MW430950   0.876   2.704   5.727 -0.0106 -0.5825 -0.0370
 7795SOL     OW30951   1.194   3.518   2.426 -0.4357 -0.2856 -0.1638
 7795SOL    HW230952   1.269   3.543   2.479  0.5339  1.8116 -2.3347
 7795SOL    HW330953   1.147   3.600   2.410 -0.7797 -0.8374 -2.3485
 7795SOL    MW430954   1.197   3.532   2.431  0.0479  0.0985  0.3013
 7796SOL     OW30955   3.181   4.702   3.370  0.4175 -0.2406  0.4728
 7796SOL    HW230956   3.120   4.630   3.385  0.1417 -0.0241  0.4098
 7796SOL    HW330957   3.268   4.663   3.379  0.2990 -0.8995 -0.9425
 7796SOL    MW430958   3.184   4.687   3.373 -0.3779 -0.1234  0.5601
 7797SOL     OW30959   2.399   6.029   2.535  0.0382  0.0718 -0.1570
 7797SOL    HW230960   2.372   5.991   2.619  1.1536 -2.4526 -0.8654
 7797SOL    HW330961   2.345   5.986   2.470  0.7039  0.3639 -0.9254
 7797SOL    MW430962   2.389   6.018   2.538  0.4392 -0.7409  0.2696
 7798SOL     OW30963   2.766   0.420   6.385 -0.4508 -0.2502  0.3962
 7798SOL    HW230964   2.758   0.480   6.312  0.3100 -1.8110 -1.0253
 7798SOL    HW330965   2.780   0.476   6.461 -0.3074  1.3707 -0.7842
 7798SOL    MW430966   2.766   0.435   6.386 -0.2623  0.5678  0.1082
 7799SOL     OW30967   2.082   2.652   5.155 -0.4263 -0.0469  0.1359
 7799SOL    HW230968   2.056   2.707   5.081  0.5788 -1.0919 -1.0405
 7799SOL    HW330969   2.002   2.642   5.206 -0.9932  1.2330 -0.4391
 7799SOL    MW430970   2.068   2.658   5.152  0.3003  0.6544 -0.0330
 7800SOL     OW30971   5.058   1.565   2.862  0.2975 -0.1961  0.2560
 7800SOL    HW230972   5.097   1.506   2.927  1.1170  1.4464  1.3180
 7800SOL    HW330973   5.127   1.628   2.843 -0.7111  0.7218 -0.4876
 7800SOL    MW430974   5.072   1.566   2.868  0.7101 -0.4333 -0.3092
 7801SOL     OW30975   0.593   2.916   0.797 -0.0834 -0.0236 -0.2963
 7801SOL    HW230976   0.565   3.001   0.763 -1.3056 -0.3490 -0.1408
 7801SOL    HW330977   0.573   2.855   0.726  2.6698  0.0336 -1.2533
 7801SOL    MW430978   0.586   2.919   0.783 -0.0503  0.0145 -1.1679
 7802SOL     OW30979   5.346   0.628   6.290 -0.2227 -0.0699  0.4696
 7802SOL    HW230980   5.282   0.626   6.361 -0.6976 -0.1854  0.0483
 7802SOL    HW330981   5.379   0.718   6.289 -0.8951  0.1777  0.2407
 7802SOL    MW430982   5.342   0.639   6.299 -0.0130  0.0469 -0.3696
 7803SOL     OW30983   5.593   5.558   5.466  0.2418 -0.1644 -0.8364
 7803SOL    HW230984   5.560   5.583   5.380 -1.8551  0.2377  0.0258
 7803SOL    HW330985   5.634   5.472   5.452 -1.0868 -0.6307 -2.0220
 7803SOL    MW430986   5.594   5.550   5.453  0.0281  0.0903  0.2815
 7804SOL     OW30987   0.523   4.545   1.383 -0.4854 -0.0016 -0.6718
 7804SOL    HW230988   0.576   4.473   1.417  2.8591  2.7412  0.4590
 7804SOL    HW330989   0.456   4.559   1.451 -0.1767 -0.9772 -0.1509
 7804SOL    MW430990   0.521   4.538   1.397  0.3552  0.3603  0.9544
 7805SOL     OW30991   4.819   6.339   0.236 -0.5304  0.7061 -0.5617
 7805SOL    HW230992   4.878   6.264   0.243  0.2393  1.4680  2.4365
 7805SOL    HW330993   4.873   6.409   0.201  0.2413  1.1831  1.4408
 7805SOL    MW430994   4.834   6.338   0.232  0.1412  0.7210  0.5867
 7806SOL     OW30995   5.569   1.880   3.407 -0.0502 -0.1982 -0.1140
 7806SOL    HW230996   5.497   1.820   3.385 -0.1261  0.1973 -0.9958
 7806SOL    HW330997   5.554   1.956   3.351  0.5372  0.2806  0.3688
 7806SOL    MW430998   5.557   1.882   3.396 -0.1805 -0.0856 -0.1549
 7807SOL     OW30999   0.605   2.161   1.639  0.1934  0.5217 -0.4548
 7807SOL    HW231000   0.524   2.141   1.592  0.0424  1.3618 -0.5558
 7807SOL    HW331001   0.654   2.218   1.580  0.5139  0.6552 -0.0637
 7807SOL    MW431002   0.601   2.166   1.625 -0.3342  0.0858  0.4381
 7808SOL     OW31003   3.788   2.870   1.973  0.2929  0.3164  0.4223
 7808SOL    HW231004   3.814   2.813   1.901  1.0116 -0.8136  1.5334
 7808SOL    HW331005   3.692   2.864   1.976  0.3815 -1.4235  0.9392
 7808SOL    MW431006   3.778   2.862   1.964 -0.2739 -0.3938 -0.4210
 7809SOL     OW31007   1.113   1.579   5.512  0.7335 -0.3074  0.1758
 7809SOL    HW231008   1.147   1.524   5.582  0.6179  2.1080  2.3154
 7809SOL    HW331009   1.091   1.662   5.556 -1.1781  0.6907 -2.3971
 7809SOL    MW431010   1.114   1.583   5.527  0.0380  0.3453  0.7462
 7810SOL     OW31011   5.537   6.029   5.111 -0.1506 -0.7912 -0.0078
 7810SOL    HW231012   5.583   5.999   5.189  1.8370  1.3464 -0.2590
 7810SOL    HW331013   5.521   5.949   5.060 -2.8535 -2.4905  3.1177
 7810SOL    MW431014   5.541   6.014   5.114 -0.0242  0.2375 -0.4661
 7811SOL     OW31015   2.680   2.078   6.319  0.3347  0.0192  0.4468
 7811SOL    HW231016   2.704   2.165   6.286  0.3762  0.4200  1.4943
 7811SOL    HW331017   2.737   2.018   6.272  1.1556  0.6741  0.5845
 7811SOL    MW431018   2.691   2.082   6.308 -0.7905  0.4559 -0.0247
 7812SOL     OW31019   4.877   2.445   1.425  0.2148 -0.0200  0.1444
 7812SOL    HW231020   4.948   2.488   1.473 -0.7182  0.6293  0.9859
 7812SOL    HW331021   4.897   2.462   1.333  1.7676 -0.8640  0.2952
 7812SOL    MW431022   4.889   2.453   1.419 -0.4279  0.8218 -0.6142
 7813SOL     OW31023   0.859   0.125   4.215 -0.4086  0.0516  0.5343
 7813SOL    HW231024   0.920   0.055   4.239 -1.0772 -0.5085  0.6300
 7813SOL    HW331025   0.781   0.079   4.185 -1.0085  0.7619  0.9983
 7813SOL    MW431026   0.857   0.109   4.214  0.2392  0.5157 -0.5834
 7814SOL     OW31027   4.037   4.135   3.234  0.2123 -0.1256  0.3662
 7814SOL    HW231028   4.053   4.225   3.207  0.2481 -0.5560 -1.1224
 7814SOL    HW331029   4.007   4.091   3.155 -0.0148 -1.3741  1.1212
 7814SOL    MW431030   4.035   4.141   3.220 -0.1572  0.1137 -0.5327
 7815SOL     OW31031   6.181   1.791   1.688 -0.5346 -0.9616 -0.4765
 7815SOL    HW231032   6.229   1.810   1.608 -0.2927 -1.5936 -0.4918
 7815SOL    HW331033   6.237   1.825   1.758  0.5407 -2.6954 -0.4130
 7815SOL    MW431034   6.195   1.798   1.687 -0.3111  0.1940  0.2963
 7816SOL     OW31035   5.796   4.049   5.129 -0.0662 -0.2126  0.2377
 7816SOL    HW231036   5.809   4.119   5.065  2.1496 -1.3025 -0.6045
 7816SOL    HW331037   5.712   4.010   5.104 -0.8691  1.4884  0.1238
 7816SOL    MW431038   5.787   4.053   5.117 -0.0938 -0.6659 -0.2815
 7817SOL     OW31039   4.877   1.381   3.241  0.1258 -0.1101 -0.1530
 7817SOL    HW231040   4.811   1.434   3.195 -0.4328 -1.0064 -0.4091
 7817SOL    HW331041   4.859   1.291   3.213  0.7042 -0.5030  0.7020
 7817SOL    MW431042   4.866   1.376   3.231 -0.0198 -0.1434  0.4462
 7818SOL     OW31043   2.668   2.595   3.411  0.0786 -0.5572 -0.4212
 7818SOL    HW231044   2.623   2.671   3.374 -0.7833 -0.8663 -0.0254
 7818SOL    HW331045   2.686   2.621   3.502 -1.6809 -1.4237  0.2069
 7818SOL    MW431046   2.664   2.609   3.418  0.0330  0.2788  0.9441
 7819SOL     OW31047   2.047   2.050   0.514 -0.2125 -0.3287 -0.2406
 7819SOL    HW231048   2.051   2.146   0.511 -1.8597 -0.1747  0.8722
 7819SOL    HW331049   2.137   2.023   0.532  0.4562  0.9444 -1.4816
 7819SOL    MW431050   2.059   2.059   0.516 -0.0398 -0.0611 -0.6090
 7820SOL     OW31051   0.672   4.971   3.231 -0.0936 -0.2331 -0.2042
 7820SOL    HW231052   0.697   5.059   3.260 -1.2559 -0.3353  1.1919
 7820SOL    HW331053   0.738   4.914   3.270 -0.5110 -0.1678  0.6232
 7820SOL    MW431054   0.684   4.975   3.240  0.0186  0.3200 -0.3461
 7821SOL     OW31055   5.489   6.420   6.094  0.2041  0.0745 -0.0513
 7821SOL    HW231056   5.499   6.384   6.182 -0.2159 -0.4578 -0.2134
 7821SOL    HW331057   5.482   6.514   6.107  1.0593  0.0799  0.4040
 7821SOL    MW431058   5.490   6.428   6.107 -0.1895  0.0289  0.1662
 7822SOL     OW31059   4.359   0.762   0.835  0.2654  0.1450 -0.0543
 7822SOL    HW231060   4.407   0.836   0.797 -0.6306  0.2902 -0.9527
 7822SOL    HW331061   4.398   0.750   0.921  1.7951  0.3483 -0.6930
 7822SOL    MW431062   4.370   0.770   0.841 -0.0969  0.0050 -0.7057
 7823SOL     OW31063   4.085   6.299   0.443  0.2479 -0.5063 -0.2783
 7823SOL    HW231064   4.163   6.259   0.403 -1.2132 -3.7004 -0.2480
 7823SOL    HW331065   4.094   6.280   0.536 -0.8007 -1.4294 -0.3512
 7823SOL    MW431066   4.097   6.291   0.450 -0.2467 -0.1196  0.5279
 7824SOL     OW31067   2.381   4.532   5.731  0.1308  0.3666 -0.7754
 7824SOL    HW231068   2.363   4.517   5.823 -0.8239  1.4976 -0.7501
 7824SOL    HW331069   2.466   4.491   5.715 -0.2204 -0.8115  0.3242
 7824SOL    MW431070   2.390   4.525   5.741  0.1797  0.3626  0.0727
 7825SOL     OW31071   2.417   5.287   4.305  0.2951  0.6312 -0.3382
 7825SOL    HW231072   2.348   5.221   4.311  1.0137 -0.2117 -0.9927
 7825SOL    HW331073   2.417   5.312   4.213  0.4285  1.1001 -0.2097
 7825SOL    MW431074   2.408   5.281   4.293 -0.1299 -0.3518  0.3014
 7826SOL     OW31075   6.276   5.486   4.705 -1.1067  0.1279 -0.4709
 7826SOL    HW231076   6.266   5.392   4.689  0.7221 -0.2683  0.4414
 7826SOL    HW331077   6.313   5.521   4.624  1.0864 -0.5330  0.1750
 7826SOL    MW431078   6.280   5.478   4.692  0.0121  0.3486  0.2362
 7827SOL     OW31079   1.007   0.924   0.563  0.2505  0.0463 -0.0062
 7827SOL    HW231080   0.928   0.957   0.605  0.8216  1.9427 -0.3289
 7827SOL    HW331081   0.976   0.872   0.489 -0.6965  0.3700  0.1606
 7827SOL    MW431082   0.993   0.921   0.559 -0.0981  0.3377  0.4589
 7828SOL     OW31083   0.100   2.619   4.943 -0.1652  0.7041  0.2555
 7828SOL    HW231084   0.191   2.649   4.943 -0.3752  1.4865 -1.5658
 7828SOL    HW331085   0.097   2.551   5.010  1.5623  1.2233  0.9177
 7828SOL    MW431086   0.111   2.614   4.952 -0.3973 -0.2400 -0.3908
 7829SOL     OW31087   2.165   0.606   5.642  0.3871 -0.0113 -0.3926
 7829SOL    HW231088   2.209   0.648   5.569  0.4642 -0.6854 -0.7449
 7829SOL    HW331089   2.199   0.516   5.643  2.3644  0.6568  2.0614
 7829SOL    MW431090   2.175   0.599   5.633  0.1573 -0.6250  0.8595
 7830SOL     OW31091   5.301   3.118   5.784 -0.2296 -0.3276  0.3780
 7830SOL    HW231092   5.233   3.090   5.846  0.2551  1.2766  1.7112
 7830SOL    HW331093   5.257   3.183   5.729 -0.8296 -2.1862 -1.4557
 7830SOL    MW431094   5.286   3.123   5.785 -0.4347  0.5063 -0.0140
 7831SOL     OW31095   4.682   3.060   2.457 -0.0383  0.1919  0.3477
 7831SOL    HW231096   4.623   3.000   2.412  1.3117 -1.0832  0.1980
 7831SOL    HW331097   4.637   3.081   2.539 -1.5807  0.8779 -0.6337
 7831SOL    MW431098   4.668   3.055   2.462  0.0639  0.0060 -0.7364
 7832SOL     OW31099   3.974   0.067   4.372  0.0483  0.4028  0.4301
 7832SOL    HW231100   4.057   0.022   4.357 -0.2932 -0.0990  0.0228
 7832SOL    HW331101   3.926   0.010   4.432 -0.8476 -0.3727 -0.9623
 7832SOL    MW431102   3.978   0.054   4.378 -0.0573  0.7685  0.7083
 7833SOL     OW31103   5.402   0.859   0.029  0.0517 -0.2709  0.0029
 7833SOL    HW231104   5.449   0.795   0.083  0.1181 -0.6221 -0.4609
 7833SOL    HW331105   5.365   0.921   0.092  1.2164  0.0668  0.3766
 7833SOL    MW431106   5.404   0.858   0.045  0.0622  0.1581 -1.1831
 7834SOL     OW31107   2.908   3.907   2.567  0.4113  0.5062  0.0595
 7834SOL    HW231108   2.880   3.846   2.499 -2.9184  1.2178  0.6009
 7834SOL    HW331109   2.917   3.991   2.522 -2.3283  1.0966  0.4452
 7834SOL    MW431110   2.905   3.910   2.552  0.5674 -0.0515 -0.0977
 7835SOL     OW31111   5.736   5.305   2.858 -0.5423  0.4733 -0.1848
 7835SOL    HW231112   5.795   5.329   2.786  1.2904 -0.0938  1.0699
 7835SOL    HW331113   5.663   5.260   2.815  1.1775 -1.0972 -1.6088
 7835SOL    MW431114   5.734   5.303   2.843 -0.3267  0.0893  0.2992
 7836SOL     OW31115   0.627   1.694   2.632  0.0469  0.1206 -0.6624
 7836SOL    HW231116   0.574   1.626   2.676 -1.6083  1.5674 -0.2940
 7836SOL    HW331117   0.615   1.677   2.539 -1.7141  0.8273 -0.6023
 7836SOL    MW431118   0.618   1.682   2.626 -0.5729 -0.1166  0.5017
 7837SOL     OW31119   2.779   5.057   2.254 -0.0702 -0.2432 -0.2284
 7837SOL    HW231120   2.701   5.047   2.200  0.2101  2.7135 -1.3396
 7837SOL    HW331121   2.852   5.044   2.193  0.3305 -1.2540  0.4373
 7837SOL    MW431122   2.778   5.054   2.239  0.2660  0.6912 -0.2542
 7838SOL     OW31123   2.731   1.015   0.738 -0.0016 -0.0972  0.5616
 7838SOL    HW231124   2.638   1.037   0.751  0.3609  1.3838  0.8569
 7838SOL    HW331125   2.750   0.949   0.805 -0.0816  1.8869  2.6887
 7838SOL    MW431126   2.721   1.009   0.749 -0.5479  0.0526 -0.2624
 7839SOL     OW31127   4.160   0.687   3.848 -0.3028 -0.0444  0.4975
 7839SOL    HW231128   4.065   0.682   3.862 -0.0407 -1.5055  2.1361
 7839SOL    HW331129   4.181   0.605   3.803  0.3430 -0.3287  1.3068
 7839SOL    MW431130   4.150   0.675   3.844 -0.3136  0.1523  0.0509
 7840SOL     OW31131   5.796   4.491   3.079  0.1625 -0.2565 -0.5321
 7840SOL    HW231132   5.765   4.477   3.168 -1.0152  0.0941 -0.8818
 7840SOL    HW331133   5.860   4.420   3.065 -0.1966 -0.7631  0.3258
 7840SOL    MW431134   5.801   4.480   3.089 -0.6624 -0.2997  0.3290
 7841SOL     OW31135   3.101   5.481   4.896  0.9954 -0.1964  0.3680
 7841SOL    HW231136   3.110   5.456   4.805  1.9201 -0.7410  0.5911
 7841SOL    HW331137   3.113   5.576   4.896  2.6540 -0.3760  0.0970
 7841SOL    MW431138   3.104   5.490   4.884 -0.2396  0.1954 -0.6188
 7842SOL     OW31139   1.690   5.040   2.170 -0.4634  0.3373  1.0163
 7842SOL    HW231140   1.758   5.094   2.128  1.5335 -1.2934  1.9434
 7842SOL    HW331141   1.651   5.097   2.236  0.7388  1.0299  1.1620
 7842SOL    MW431142   1.694   5.055   2.173  0.9534 -0.0020 -0.0158
 7843SOL     OW31143   6.084   0.556   4.906 -0.2899 -0.0416 -0.3100
 7843SOL    HW231144   6.005   0.502   4.902 -0.1422 -0.2801 -0.1113
 7843SOL    HW331145   6.064   0.622   4.972  0.2653 -1.1109  0.9956
 7843SOL    MW431146   6.071   0.557   4.914  0.6732  0.3270  0.3063
 7844SOL     OW31147   4.689   2.824   5.449  0.1519  0.0762  0.0511
 7844SOL    HW231148   4.641   2.750   5.486 -1.9002  0.4612 -1.6668
 7844SOL    HW331149   4.753   2.784   5.390  0.8563 -0.3786  1.0887
 7844SOL    MW431150   4.691   2.809   5.446  0.0820  0.7497 -0.4731
 7845SOL     OW31151   5.237   4.414   5.507 -0.5609 -0.1806  0.1565
 7845SOL    HW231152   5.175   4.488   5.507 -0.0055  0.2957  0.8336
 7845SOL    HW331153   5.220   4.369   5.590  0.7846  0.6320  0.8947
 7845SOL    MW431154   5.226   4.418   5.518 -0.4151 -0.5465 -0.0652
 7846SOL     OW31155   0.216   5.264   0.021  0.5069 -0.3629  0.0775
 7846SOL    HW231156   0.221   5.199   0.091  3.2182  1.0953  1.3866
 7846SOL    HW331157   0.199   5.347   0.066  0.5465  0.3511 -1.1798
 7846SOL    MW431158   0.214   5.266   0.036  0.3861  0.0017  0.4801
 7847SOL     OW31159   2.174   5.809   2.039  0.0398 -0.1638 -0.2625
 7847SOL    HW231160   2.093   5.828   1.991 -1.0275 -0.1488  1.4635
 7847SOL    HW331161   2.155   5.729   2.087  1.1725 -0.3268 -0.0676
 7847SOL    MW431162   2.161   5.801   2.039  0.3197  0.2690  0.6177
 7848SOL     OW31163   0.728   2.414   0.232  0.5539 -0.7012 -0.2816
 7848SOL    HW231164   0.655   2.447   0.180 -0.3895  0.1714  1.5115
 7848SOL    HW331165   0.706   2.322   0.249  0.6056 -0.8414 -0.9583
 7848SOL    MW431166   0.716   2.406   0.228 -0.1555 -0.0309 -0.0735
 7849SOL     OW31167   1.747   3.542   0.541  0.7219 -0.0796 -0.2045
 7849SOL    HW231168   1.694   3.621   0.546  1.7007  0.6230 -0.6637
 7849SOL    HW331169   1.746   3.506   0.630 -2.5409 -1.4861 -0.6479
 7849SOL    MW431170   1.740   3.548   0.553  0.0045 -0.6053 -0.0819
 7850SOL     OW31171   6.333   2.429   1.314 -0.3098  0.2297  0.2734
 7850SOL    HW231172   6.379   2.346   1.298  0.6996  0.8420 -0.1519
 7850SOL    HW331173   6.277   2.441   1.238  0.5379  0.5671 -0.3132
 7850SOL    MW431174   6.332   2.420   1.302 -0.2821  0.7466  0.4118
 7851SOL     OW31175   4.324   2.984   0.693 -0.2270 -0.2960  0.4075
 7851SOL    HW231176   4.365   3.020   0.614 -0.5239 -1.9964 -0.5704
 7851SOL    HW331177   4.311   2.892   0.673  0.6161 -1.0295  2.8464
 7851SOL    MW431178   4.328   2.977   0.680 -0.2504  0.1545 -0.4064
 7852SOL     OW31179   5.885   2.477   1.272  0.3666  0.4731 -0.4447
 7852SOL    HW231180   5.853   2.568   1.270 -0.9711  0.0288 -0.1590
 7852SOL    HW331181   5.821   2.428   1.221  0.4709 -0.4860  0.3296
 7852SOL    MW431182   5.872   2.483   1.265  0.1132  0.4524  0.6336
 7853SOL     OW31183   6.408   5.883   0.427  0.0888 -0.5057  0.7848
 7853SOL    HW231184   6.386   5.964   0.381 -1.7656 -2.0025 -1.1514
 7853SOL    HW331185   6.330   5.863   0.479 -0.3854 -2.1217 -0.4614
 7853SOL    MW431186   6.395   5.891   0.428  0.8483 -0.3844 -0.6709
 7854SOL     OW31187   0.767   0.443   1.804  0.1607 -0.2318 -0.5554
 7854SOL    HW231188   0.726   0.469   1.722 -0.1603 -0.6771 -0.5341
 7854SOL    HW331189   0.746   0.351   1.814  1.5179 -0.5857 -0.7600
 7854SOL    MW431190   0.759   0.434   1.794 -0.3389 -0.6965  0.3540
 7855SOL     OW31191   3.991   3.123   1.127 -0.5013 -0.0171  0.2115
 7855SOL    HW231192   4.023   3.172   1.203  0.9330  0.8224 -0.8762
 7855SOL    HW331193   4.069   3.080   1.091 -1.3214 -1.1656 -0.2495
 7855SOL    MW431194   4.006   3.124   1.132 -0.4552  0.3761 -0.1240
 7856SOL     OW31195   3.416   3.282   2.845 -0.0003 -0.1609 -0.0898
 7856SOL    HW231196   3.328   3.315   2.862  0.0229  0.2244 -0.6833
 7856SOL    HW331197   3.458   3.351   2.793  0.0828 -1.0820 -1.2846
 7856SOL    MW431198   3.410   3.295   2.841 -0.1115 -0.1509  0.4943
 7857SOL     OW31199   1.989   4.235   5.701 -0.0267  0.3519 -0.2011
 7857SOL    HW231200   2.039   4.307   5.663 -0.8650  1.6404  1.0429
 7857SOL    HW331201   2.056   4.172   5.728  0.8817  1.5275  0.4057
 7857SOL    MW431202   2.004   4.236   5.700  0.6931 -0.0530  0.3986
 7858SOL     OW31203   5.314   2.336   6.207 -0.3102 -0.2757 -0.0006
 7858SOL    HW231204   5.354   2.327   6.120 -0.0838  3.6942 -0.4906
 7858SOL    HW331205   5.222   2.357   6.189 -1.1212 -2.6957  0.9240
 7858SOL    MW431206   5.307   2.338   6.193  0.2085  0.5269 -0.0799
 7859SOL     OW31207   3.903   4.131   5.803  0.0938 -0.2425 -0.0827
 7859SOL    HW231208   3.814   4.159   5.824  0.0791 -0.7659  0.5879
 7859SOL    HW331209   3.942   4.109   5.888  0.3345 -1.5351 -0.5042
 7859SOL    MW431210   3.897   4.131   5.817 -0.4022 -0.0516  0.0231
 7860SOL     OW31211   6.261   0.661   5.258 -0.7059 -0.0338 -0.1179
 7860SOL    HW231212   6.275   0.699   5.171  0.9323 -1.5582 -0.5847
 7860SOL    HW331213   6.220   0.576   5.240 -1.6893  0.2487  0.7132
 7860SOL    MW431214   6.257   0.655   5.244 -0.5161  0.5870 -0.7533
 7861SOL     OW31215   6.177   0.580   1.835  0.3666  0.3769 -0.2703
 7861SOL    HW231216   6.094   0.565   1.791 -0.2029  0.6824  0.6652
 7861SOL    HW331217   6.153   0.604   1.925  1.3560  2.7723 -0.5574
 7861SOL    MW431218   6.163   0.581   1.841  0.0518  0.0582 -0.2575
 7862SOL     OW31219   5.875   1.183   4.028 -0.2543  0.3332  0.8941
 7862SOL    HW231220   5.916   1.269   4.022 -1.0916  0.6595 -1.7384
 7862SOL    HW331221   5.905   1.137   3.949 -0.2233 -1.6280  1.9871
 7862SOL    MW431222   5.884   1.189   4.017  0.0301 -0.5750  0.0608
 7863SOL     OW31223   3.937   5.720   5.108  0.2590 -0.1547 -0.0887
 7863SOL    HW231224   3.965   5.791   5.166 -0.6238 -0.2601  0.4858
 7863SOL    HW331225   4.017   5.673   5.087  0.6480  0.1368  0.7201
 7863SOL    MW431226   3.951   5.723   5.113 -0.0871 -0.0108 -0.1662
 7864SOL     OW31227   0.924   3.201   0.708 -0.3549  0.0862  0.2531
 7864SOL    HW231228   0.948   3.279   0.759  1.2515  0.3716 -0.8498
 7864SOL    HW331229   1.005   3.150   0.705 -0.9741 -0.8764 -0.3473
 7864SOL    MW431230   0.938   3.205   0.715  0.0503  0.0636 -0.1735
 7865SOL     OW31231   0.474   2.317   5.653  0.0818 -0.1974  0.0512
 7865SOL    HW231232   0.408   2.313   5.584  1.0678  1.9357 -1.0850
 7865SOL    HW331233   0.556   2.336   5.608  1.5410 -2.5407  1.4420
 7865SOL    MW431234   0.476   2.319   5.638  0.1943 -0.2250  0.7789
 7866SOL     OW31235   0.434   1.654   3.189 -0.4053 -0.2634 -0.1639
 7866SOL    HW231236   0.525   1.685   3.185 -0.4040 -0.3517 -1.9439
 7866SOL    HW331237   0.418   1.620   3.101 -1.2673 -2.8757  0.9218
 7866SOL    MW431238   0.444   1.654   3.177 -0.2480 -0.3218 -0.0415
 7867SOL     OW31239   0.609   0.809   5.177 -0.3447 -0.4445 -0.5836
 7867SOL    HW231240   0.517   0.795   5.198 -0.4999  1.8159  0.5484
 7867SOL    HW331241   0.657   0.750   5.235 -1.0297 -1.8810 -1.4091
 7867SOL    MW431242   0.603   0.800   5.187 -0.6454 -0.2250  0.0213
 7868SOL     OW31243   1.085   4.073   5.398 -0.2666 -0.4303 -0.0854
 7868SOL    HW231244   1.069   4.096   5.489  0.1378  0.6326 -0.2694
 7868SOL    HW331245   1.174   4.104   5.381 -0.0209 -1.3767 -0.6061
 7868SOL    MW431246   1.095   4.080   5.407  0.3190 -0.0698  0.1798
 7869SOL     OW31247   6.199   4.146   5.900 -0.1345  0.1691  0.2669
 7869SOL    HW231248   6.154   4.166   5.818 -0.9661 -1.5961  0.2521
 7869SOL    HW331249   6.128   4.125   5.961  0.5659 -0.3585  0.9149
 7869SOL    MW431250   6.183   4.146   5.897  0.0614  0.6473 -0.2325
 7870SOL     OW31251   2.637   1.136   1.751 -0.1237  0.4321 -0.0645
 7870SOL    HW231252   2.647   1.139   1.846  0.5440 -0.4226 -0.0970
 7870SOL    HW331253   2.693   1.207   1.719  0.2872  0.1951  0.1334
 7870SOL    MW431254   2.646   1.146   1.759  0.3621 -1.0208  0.0693
 7871SOL     OW31255   4.690   5.480   2.620 -0.5902  0.0106  0.0444
 7871SOL    HW231256   4.675   5.498   2.713  0.5019 -2.0080  0.6948
 7871SOL    HW331257   4.776   5.519   2.602 -1.1723  1.1321 -0.3731
 7871SOL    MW431258   4.700   5.487   2.630  0.1546  0.7655 -0.1963
 7872SOL     OW31259   5.223   2.120   1.525  0.1684  0.2885  0.1996
 7872SOL    HW231260   5.187   2.041   1.567  0.4316  0.7679  1.3713
 7872SOL    HW331261   5.165   2.136   1.450 -1.3714  0.3560  1.3488
 7872SOL    MW431262   5.210   2.112   1.521 -0.9626  0.7357  0.1640
 7873SOL     OW31263   6.001   2.424   1.657 -0.2327 -0.6746 -0.6406
 7873SOL    HW231264   6.067   2.471   1.606  0.2760  0.3567  0.9126
 7873SOL    HW331265   5.927   2.414   1.596 -0.3993  2.2429 -1.0475
 7873SOL    MW431266   6.000   2.429   1.642 -0.7579  0.2800 -0.3503
 7874SOL     OW31267   5.600   0.116   4.111 -0.3682  0.3542  0.7175
 7874SOL    HW231268   5.594   0.103   4.205  0.9719  0.7632  0.8773
 7874SOL    HW331269   5.594   0.211   4.099 -1.5005  0.2493  0.2886
 7874SOL    MW431270   5.598   0.127   4.122 -0.2499  0.4714  0.7227
 7875SOL     OW31271   4.994   2.862   1.157 -0.2628 -0.0170 -0.3076
 7875SOL    HW231272   4.921   2.867   1.217  0.1037 -2.0935  0.3636
 7875SOL    HW331273   5.056   2.928   1.189 -0.8910  0.2387  0.4022
 7875SOL    MW431274   4.993   2.872   1.169  0.1842  0.6477 -0.1520
 7876SOL     OW31275   0.023   0.934   5.900  0.1784 -0.0496 -0.0903
 7876SOL    HW231276   0.114   0.926   5.870 -0.1738  0.9799 -1.5492
 7876SOL    HW331277  -0.025   0.873   5.845 -0.1049 -0.1175  0.2328
 7876SOL    MW431278   0.029   0.925   5.888  0.7133  0.4465 -0.0604
 7877SOL     OW31279   4.146   3.752   4.374  0.8009 -0.6865 -0.4528
 7877SOL    HW231280   4.216   3.688   4.388 -0.6531 -2.4138 -0.7566
 7877SOL    HW331281   4.071   3.716   4.421 -0.1467  0.6740 -0.8698
 7877SOL    MW431282   4.145   3.738   4.382 -0.5526 -0.0067  0.6609
 7878SOL     OW31283   3.026   2.932   5.220 -0.0016 -0.0688 -0.0504
 7878SOL    HW231284   3.076   2.867   5.171 -0.8868 -0.1507 -0.8832
 7878SOL    HW331285   2.955   2.882   5.260 -0.7678  0.3963 -0.8095
 7878SOL    MW431286   3.023   2.917   5.219  0.3565  0.5619 -0.0913
 7879SOL     OW31287   2.018   1.329   5.913  0.3466  0.1215 -0.4158
 7879SOL    HW231288   1.988   1.279   5.989 -0.9760  2.2991  0.6038
 7879SOL    HW331289   2.107   1.297   5.897  0.4004 -0.9256  1.5861
 7879SOL    MW431290   2.026   1.318   5.921 -0.2456  0.4533 -0.0620
 7880SOL     OW31291   5.389   5.277   3.575 -0.1061  0.2630  0.4791
 7880SOL    HW231292   5.322   5.258   3.509  0.1340  0.3947  0.2001
 7880SOL    HW331293   5.409   5.370   3.563 -0.2141  0.3375  0.8740
 7880SOL    MW431294   5.383   5.287   3.565  0.2767  0.5160 -0.0739
 7881SOL     OW31295   4.140   1.403   3.715 -0.2744 -0.0323  0.0115
 7881SOL    HW231296   4.207   1.459   3.676 -0.9973  0.7221 -0.1821
 7881SOL    HW331297   4.100   1.358   3.641  0.6154 -1.1934  0.2044
 7881SOL    MW431298   4.144   1.404   3.700  0.4227 -0.2426  0.8096
 7882SOL     OW31299   1.648   6.255   3.823 -0.1377  0.1621 -0.5801
 7882SOL    HW231300   1.630   6.321   3.756  1.2955 -0.5650 -1.7269
 7882SOL    HW331301   1.739   6.269   3.848 -0.7958  0.7908  1.6933
 7882SOL    MW431302   1.658   6.265   3.817 -0.1896 -0.5926 -1.0731
 7883SOL     OW31303   2.461   1.237   4.471  0.3432  0.0846 -0.2884
 7883SOL    HW231304   2.554   1.234   4.445  0.9121  0.2446  1.5674
 7883SOL    HW331305   2.417   1.282   4.400  1.7513  0.2791 -1.0652
 7883SOL    MW431306   2.468   1.242   4.459 -0.0342 -0.1419  0.0045
 7884SOL     OW31307   1.650   3.587   1.641  0.0338  0.0594  0.2248
 7884SOL    HW231308   1.615   3.517   1.586  1.1441  1.4595 -2.4802
 7884SOL    HW331309   1.573   3.637   1.668 -0.4896  0.1741 -1.3613
 7884SOL    MW431310   1.636   3.584   1.637 -0.3759 -0.8646 -0.1798
 7885SOL     OW31311   0.558   0.266   6.230  0.3839  0.0793 -0.5487
 7885SOL    HW231312   0.490   0.331   6.213  1.0670  1.0017  0.1163
 7885SOL    HW331313   0.515   0.182   6.217 -0.4128  0.6523 -1.8474
 7885SOL    MW431314   0.543   0.264   6.226 -0.3235  0.2811 -0.1014
 7886SOL     OW31315   1.408   2.895   5.822 -0.2483 -0.3287 -0.0950
 7886SOL    HW231316   1.439   2.865   5.736 -0.1227  1.0514 -0.5515
 7886SOL    HW331317   1.487   2.899   5.876 -0.1831 -0.3264 -0.1892
 7886SOL    MW431318   1.422   2.892   5.818 -0.5802 -0.3504 -0.0043
 7887SOL     OW31319   0.838   3.591   1.962 -0.0611 -0.2697  0.7782
 7887SOL    HW231320   0.876   3.671   1.999 -1.4080  0.1937  1.2054
 7887SOL    HW331321   0.881   3.520   2.009  2.4966  0.0596 -0.8450
 7887SOL    MW431322   0.849   3.592   1.973 -0.0816 -0.1645 -0.2681
 7888SOL     OW31323   4.586   3.063   5.381  0.0440  0.2150 -0.2197
 7888SOL    HW231324   4.655   3.129   5.375  0.7361 -0.4345  0.3664
 7888SOL    HW331325   4.632   2.983   5.406 -0.6292 -0.7555 -1.9343
 7888SOL    MW431326   4.601   3.061   5.383 -0.6646  0.4930  0.4963
 7889SOL     OW31327   1.370   0.852   4.387  0.1615 -0.4630  0.0406
 7889SOL    HW231328   1.462   0.855   4.412  0.2166  0.3983 -0.2234
 7889SOL    HW331329   1.370   0.809   4.301  0.4979  0.8897 -0.6651
 7889SOL    MW431330   1.382   0.847   4.379  0.4688  0.0971  0.0675
 7890SOL     OW31331   4.194   4.461   6.010  0.4998 -0.0619  0.2818
 7890SOL    HW231332   4.148   4.437   5.930  0.1862  1.3405  0.0152
 7890SOL    HW331333   4.200   4.379   6.060 -1.9168 -0.3973  0.1532
 7890SOL    MW431334   4.189   4.447   6.006  0.1018 -0.0005 -0.3081
 7891SOL     OW31335   5.687   6.176   5.690 -0.4290  0.2818 -0.4508
 7891SOL    HW231336   5.620   6.211   5.631 -0.2506 -1.3355 -1.6686
 7891SOL    HW331337   5.770   6.191   5.644 -0.2210 -0.2965 -0.2759
 7891SOL    MW431338   5.689   6.183   5.676 -0.3132  0.5686 -0.4864
 7892SOL     OW31339   6.309   5.840   2.646 -0.2203 -0.3598 -0.1275
 7892SOL    HW231340   6.287   5.918   2.595  1.2707 -0.9039 -1.7369
 7892SOL    HW331341   6.225   5.801   2.668 -0.9753 -0.1164 -2.3065
 7892SOL    MW431342   6.295   5.845   2.642 -0.4604 -0.3516 -0.5957
 7893SOL     OW31343   2.025   2.849   4.272 -0.1071 -0.3980 -0.2298
 7893SOL    HW231344   2.006   2.937   4.240  0.2123 -0.9104 -1.9374
 7893SOL    HW331345   1.941   2.803   4.265  0.0830 -0.6635 -0.9272
 7893SOL    MW431346   2.011   2.854   4.267 -0.3405  0.5393  0.5144
 7894SOL     OW31347   6.111   5.867   5.732 -0.3133  0.5561 -0.2118
 7894SOL    HW231348   6.191   5.838   5.687  0.8724  0.1128  2.0542
 7894SOL    HW331349   6.046   5.872   5.662  0.8774 -2.0400 -1.6654
 7894SOL    MW431350   6.113   5.864   5.717  0.0247  0.3450 -0.0078
 7895SOL     OW31351   6.213   4.731   5.649 -0.3614 -0.3838  0.1795
 7895SOL    HW231352   6.146   4.694   5.591 -0.5275 -1.1504  0.8364
 7895SOL    HW331353   6.228   4.663   5.715  1.8140 -0.6636 -0.5301
 7895SOL    MW431354   6.206   4.717   5.650  0.0848 -0.2027  0.5881
 7896SOL     OW31355   6.162   4.172   1.101  0.2300 -0.5366  0.0828
 7896SOL    HW231356   6.174   4.125   1.183  1.1750  1.3247  1.0828
 7896SOL    HW331357   6.067   4.178   1.090  0.0991 -0.5818  1.1685
 7896SOL    MW431358   6.151   4.167   1.110 -0.2565 -0.2838  0.1035
 7897SOL     OW31359   1.122   5.991   4.652  0.3351  0.0208 -0.9401
 7897SOL    HW231360   1.076   5.954   4.728  0.1051 -0.7891 -1.4618
 7897SOL    HW331361   1.054   6.007   4.587  0.4439  1.3214 -0.7637
 7897SOL    MW431362   1.107   5.988   4.654  0.0963  0.2539 -0.3659
 7898SOL     OW31363   1.880   1.835   5.258  0.4686 -0.0461 -0.5715
 7898SOL    HW231364   1.855   1.814   5.348 -2.3916  0.0173 -1.2606
 7898SOL    HW331365   1.937   1.763   5.231 -0.2544 -1.1108  0.6636
 7898SOL    MW431366   1.885   1.823   5.266 -0.2103  0.7649  0.0062
 7899SOL     OW31367   5.295   4.559   0.037 -0.2953  0.1861 -0.3460
 7899SOL    HW231368   5.235   4.507   0.090 -0.6621  0.4842 -0.4634
 7899SOL    HW331369   5.379   4.550   0.081 -0.1909 -1.0758 -0.7477
 7899SOL    MW431370   5.298   4.551   0.050  0.4467  0.3820  0.0230
 7900SOL     OW31371   3.422   1.581   3.722  0.1303  0.1162  0.3168
 7900SOL    HW231372   3.355   1.603   3.787  0.0751 -0.7164  0.5590
 7900SOL    HW331373   3.484   1.653   3.726  0.5599 -0.2958  1.8962
 7900SOL    MW431374   3.421   1.593   3.731  0.2203 -0.0460  0.4023
 7901SOL     OW31375   1.928   2.316   5.315 -0.4225  0.1424 -0.6083
 7901SOL    HW231376   1.988   2.264   5.368  0.9999  1.4984 -0.8300
 7901SOL    HW331377   1.975   2.332   5.233 -1.8985 -0.4558 -1.6338
 7901SOL    MW431378   1.942   2.311   5.311 -0.4812  0.2231 -0.1287
 7902SOL     OW31379   5.740   4.833   4.263 -0.2586 -0.1795 -0.4840
 7902SOL    HW231380   5.717   4.908   4.207 -0.8155  1.0815  1.3603
 7902SOL    HW331381   5.662   4.779   4.263 -0.3786 -0.0107 -0.6501
 7902SOL    MW431382   5.727   4.836   4.255 -0.0291  0.3416 -0.2399
 7903SOL     OW31383   4.819   1.516   4.441 -0.0321  0.0257  0.1157
 7903SOL    HW231384   4.870   1.579   4.391 -1.7841  2.5331  1.2526
 7903SOL    HW331385   4.731   1.522   4.404 -0.2162 -2.0395  0.0809
 7903SOL    MW431386   4.814   1.525   4.429 -0.4093  0.0518 -0.2843
 7904SOL     OW31387   4.940   1.280   6.109  0.4946  0.2542 -0.2992
 7904SOL    HW231388   4.917   1.248   6.196 -0.0544 -1.0215 -0.8789
 7904SOL    HW331389   4.901   1.367   6.104  0.4010  0.2779  0.6750
 7904SOL    MW431390   4.932   1.287   6.120 -0.2873 -0.5584 -0.3364
 7905SOL     OW31391   2.300   4.817   1.576  0.1316 -0.2050  0.1714
 7905SOL    HW231392   2.256   4.761   1.640 -0.1516 -2.5473 -1.9024
 7905SOL    HW331393   2.244   4.894   1.571 -0.7591 -0.7144  1.4936
 7905SOL    MW431394   2.286   4.820   1.584 -0.2561  0.0167  0.1814
 7906SOL     OW31395   6.215   4.498   4.194 -0.6637  0.1228  0.3407
 7906SOL    HW231396   6.156   4.529   4.262 -0.2796  0.9168  0.3245
 7906SOL    HW331397   6.187   4.408   4.177  0.1687 -0.6622  2.6204
 7906SOL    MW431398   6.204   4.490   4.201 -0.2256 -0.2307 -0.0185
 7907SOL     OW31399   2.312   5.758   5.246 -0.1568 -0.0973 -0.3510
 7907SOL    HW231400   2.297   5.683   5.188 -0.2073 -0.4838  0.1572
 7907SOL    HW331401   2.224   5.789   5.269 -0.1743 -0.8699  0.7003
 7907SOL    MW431402   2.298   5.753   5.241  0.3214 -0.9167 -0.1078
 7908SOL     OW31403   3.554   4.482   3.079  0.2441 -0.3207  0.6720
 7908SOL    HW231404   3.601   4.466   2.997  1.2258  1.9304  0.7196
 7908SOL    HW331405   3.462   4.469   3.058  0.6151 -1.6964 -0.2513
 7908SOL    MW431406   3.548   4.478   3.065 -0.2554  0.6206  0.4511
 7909SOL     OW31407   0.089   4.121   5.430 -0.6054  0.0842 -0.7521
 7909SOL    HW231408   0.062   4.208   5.398 -1.0882 -0.0440 -0.6916
 7909SOL    HW331409   0.182   4.132   5.452 -1.0986  1.1151  1.0469
 7909SOL    MW431410   0.098   4.134   5.429 -0.0395 -0.6121 -0.0055
 7910SOL     OW31411   6.359   4.370   1.086 -0.1914 -0.0083  0.4685
 7910SOL    HW231412   6.358   4.311   1.161 -0.8022 -0.5748  0.0201
 7910SOL    HW331413   6.322   4.319   1.014  0.6952  0.4104 -0.3107
 7910SOL    MW431414   6.354   4.355   1.086 -0.0817  0.0886 -0.0627
 7911SOL     OW31415   0.415   4.665   6.344  0.6698 -0.2334 -0.4924
 7911SOL    HW231416   0.422   4.759   6.334 -0.9411 -0.1354 -1.0277
 7911SOL    HW331417   0.343   4.640   6.286  0.2144 -1.5960  0.5911
 7911SOL    MW431418   0.406   4.674   6.335  1.0787  0.9593  0.0933
 7912SOL     OW31419   0.916   6.083   0.782 -0.5286 -0.6726  0.3031
 7912SOL    HW231420   0.937   6.112   0.871  0.2590  0.1132 -0.1300
 7912SOL    HW331421   0.883   5.994   0.794  0.4190 -0.9159  1.3014
 7912SOL    MW431422   0.914   6.075   0.795  0.0176 -0.0211 -0.4882
 7913SOL     OW31423   3.392   4.197   4.068 -0.1174  0.0138  0.5105
 7913SOL    HW231424   3.380   4.274   4.012  1.2265  0.4669  0.8189
 7913SOL    HW331425   3.414   4.232   4.154 -0.3004 -0.7084  0.8621
 7913SOL    MW431426   3.394   4.212   4.072 -1.0583  0.2588 -0.1724
 7914SOL     OW31427   3.359   2.464   4.246 -0.0908  0.0960  0.0599
 7914SOL    HW231428   3.281   2.436   4.295 -0.8193 -1.3904 -1.8059
 7914SOL    HW331429   3.387   2.386   4.199  3.4889  0.1790  1.7540
 7914SOL    MW431430   3.352   2.450   4.246 -0.7266 -0.0277 -0.3897
 7915SOL     OW31431   5.343   1.445   2.276  0.0830 -0.1529 -0.6052
 7915SOL    HW231432   5.391   1.415   2.353  0.4946 -0.2673 -0.8974
 7915SOL    HW331433   5.397   1.516   2.240  0.1168 -0.3881 -1.0280
 7915SOL    MW431434   5.357   1.451   2.281 -0.1293 -0.0039  0.1154
 7916SOL     OW31435   5.065   0.345   4.169  0.2307  0.0027 -0.0500
 7916SOL    HW231436   5.156   0.319   4.151 -0.4397 -1.3571 -1.7930
 7916SOL    HW331437   5.057   0.432   4.128  0.4667 -0.3641 -0.9093
 7916SOL    MW431438   5.076   0.353   4.161 -1.0105  0.1664 -0.8042
 7917SOL     OW31439   6.430   5.338   2.335  0.8458  0.0420  0.6720
 7917SOL    HW231440   6.464   5.254   2.304 -0.8540  0.3486 -2.5055
 7917SOL    HW331441   6.368   5.315   2.404  0.7019 -1.3166  0.1176
 7917SOL    MW431442   6.426   5.324   2.340  0.4481 -0.1385  0.1611
 7918SOL     OW31443   2.339   4.323   2.240  0.0023  0.1544 -0.6779
 7918SOL    HW231444   2.342   4.412   2.275 -1.1889 -0.1554  0.2989
 7918SOL    HW331445   2.353   4.267   2.317  2.0912 -0.5105 -1.4898
 7918SOL    MW431446   2.341   4.328   2.255 -0.1565  0.2023  0.7790
 7919SOL     OW31447   3.791   4.560   6.387 -0.3665 -0.3550  0.3198
 7919SOL    HW231448   3.787   4.655   6.397  0.9012 -0.4396  2.0906
 7919SOL    HW331449   3.861   4.545   6.324 -0.7773 -0.1178 -0.1996
 7919SOL    MW431450   3.799   4.571   6.380 -0.6058 -0.5972  0.3776
 7920SOL     OW31451   0.417   5.725   1.507 -0.9601 -0.1629  0.5742
 7920SOL    HW231452   0.350   5.792   1.493  0.1174  0.9347  0.4405
 7920SOL    HW331453   0.492   5.774   1.543  1.0908 -0.6379 -2.6183
 7920SOL    MW431454   0.418   5.741   1.510 -0.2134  0.0127 -0.0984
 7921SOL     OW31455   2.214   1.264   1.476 -0.0379 -0.5521 -0.1520
 7921SOL    HW231456   2.145   1.285   1.413 -0.3833  0.0429  0.4115
 7921SOL    HW331457   2.185   1.182   1.517 -0.6938 -0.0213  0.4673
 7921SOL    MW431458   2.201   1.256   1.473  0.5376 -0.1321  0.2103
 7922SOL     OW31459   0.305   2.070   2.150  0.2403  0.4443 -0.1356
 7922SOL    HW231460   0.221   2.102   2.184  1.2187  1.4485  1.5088
 7922SOL    HW331461   0.370   2.124   2.195  1.8817 -2.0621  0.6825
 7922SOL    MW431462   0.302   2.082   2.161  0.0684  0.0288 -0.3256
 7923SOL     OW31463   6.037   0.413   5.677 -0.1968  0.2242 -0.0691
 7923SOL    HW231464   6.000   0.389   5.593  1.0939 -0.7728 -0.3859
 7923SOL    HW331465   6.090   0.491   5.658  0.2103 -0.0863 -0.2140
 7923SOL    MW431466   6.039   0.420   5.664  0.5348  0.3074 -0.0402
 7924SOL     OW31467   6.179   0.015   5.863  0.1181 -0.3409 -0.1092
 7924SOL    HW231468   6.127  -0.017   5.937 -0.2391  0.8871  0.1923
 7924SOL    HW331469   6.115   0.055   5.804  0.4382 -1.0287 -0.9631
 7924SOL    MW431470   6.164   0.016   5.865 -0.1832 -0.0411  1.0025
 7925SOL     OW31471   4.304   3.071   3.817  0.4696 -0.8666  0.8109
 7925SOL    HW231472   4.271   3.159   3.834  1.3203 -0.8074  2.3534
 7925SOL    HW331473   4.228   3.023   3.783  0.0243  0.4626 -0.1715
 7925SOL    MW431474   4.289   3.076   3.815  0.5803  0.2803  0.1779
 7926SOL     OW31475   5.290   0.781   5.938  0.4898 -0.4054  0.2336
 7926SOL    HW231476   5.235   0.857   5.920  1.3834  0.1983 -0.0134
 7926SOL    HW331477   5.298   0.779   6.034 -1.4380 -1.5891  0.4255
 7926SOL    MW431478   5.284   0.791   5.948 -0.0812 -0.7149  0.4265
 7927SOL     OW31479   0.264   1.803   3.796  0.1052  0.4216 -0.5163
 7927SOL    HW231480   0.325   1.760   3.856 -0.9352 -0.7232 -0.2273
 7927SOL    HW331481   0.194   1.835   3.853 -0.4561  0.0969 -1.0081
 7927SOL    MW431482   0.263   1.801   3.812  0.0542  0.2824 -0.4240
 7928SOL     OW31483   3.743   1.320   4.010  0.3356 -0.3912  0.5621
 7928SOL    HW231484   3.790   1.270   3.943  0.3534 -2.0758  1.7492
 7928SOL    HW331485   3.728   1.256   4.080 -0.6651  1.0195  1.6801
 7928SOL    MW431486   3.748   1.305   4.011  0.7837 -0.0216  0.4247
 7929SOL     OW31487   4.056   1.330   1.631 -0.1827 -0.0316  0.3584
 7929SOL    HW231488   3.961   1.341   1.637 -0.2361  0.8232 -1.5222
 7929SOL    HW331489   4.091   1.392   1.695 -0.8608  2.0222 -1.1463
 7929SOL    MW431490   4.048   1.339   1.641 -0.0570 -0.8032 -0.6472
 7930SOL     OW31491   5.186   6.168   3.845 -0.6500 -0.1251  0.2617
 7930SOL    HW231492   5.124   6.173   3.918 -0.2069  4.3677  0.6102
 7930SOL    HW331493   5.137   6.203   3.771 -0.3322 -2.3917 -1.1101
 7930SOL    MW431494   5.171   6.173   3.845 -0.2256  0.2533  0.3268
 7931SOL     OW31495   1.562   1.498   4.201 -0.5380  0.3455 -0.2610
 7931SOL    HW231496   1.560   1.405   4.181 -0.6162  0.5077 -1.0339
 7931SOL    HW331497   1.474   1.518   4.234 -0.4659  0.1118  0.0722
 7931SOL    MW431498   1.550   1.488   4.203  0.1428 -0.0710  0.6967
 7932SOL     OW31499   2.687   4.445   2.413  0.4248 -0.0936  0.8335
 7932SOL    HW231500   2.613   4.456   2.473  0.4010 -0.9387  0.9706
 7932SOL    HW331501   2.764   4.439   2.470  0.2629 -2.2449  0.9019
 7932SOL    MW431502   2.688   4.445   2.428  0.1033  0.2145  0.1270
 7933SOL     OW31503   1.211   1.733   1.420 -0.1561  0.0410  0.0738
 7933SOL    HW231504   1.298   1.743   1.380 -0.3668  0.2711 -0.3416
 7933SOL    HW331505   1.201   1.810   1.476 -0.3506  0.3614 -0.3880
 7933SOL    MW431506   1.221   1.745   1.422 -0.0992  0.0899  0.3436
 7934SOL     OW31507   1.058   5.087   1.822 -0.5996 -0.5420 -0.0402
 7934SOL    HW231508   1.126   5.021   1.833 -0.6372 -0.3759  1.4793
 7934SOL    HW331509   0.994   5.047   1.764  0.3594 -1.0328 -0.7938
 7934SOL    MW431510   1.059   5.073   1.816 -0.1698  0.4182 -0.0854
 7935SOL     OW31511   1.009   6.420   0.571 -0.0242  0.0492 -0.2121
 7935SOL    HW231512   1.075   6.359   0.538 -0.1904 -0.5413  0.5183
 7935SOL    HW331513   0.953   6.438   0.495 -1.0662 -2.1597 -0.0385
 7935SOL    MW431514   1.010   6.414   0.557  0.0455 -0.0240  0.1149
 7936SOL     OW31515   6.122   3.088   5.646 -0.4953 -0.2554  0.2002
 7936SOL    HW231516   6.187   3.097   5.577 -0.0984  0.1151  0.6172
 7936SOL    HW331517   6.156   3.017   5.701 -0.8113 -0.5516  0.0171
 7936SOL    MW431518   6.135   3.080   5.644 -0.1324 -0.3089  0.1664
 7937SOL     OW31519   0.236   3.698   2.136 -0.0792 -0.3892  0.6732
 7937SOL    HW231520   0.325   3.720   2.164 -0.5457  0.9199  1.2060
 7937SOL    HW331521   0.218   3.613   2.177  0.5290 -0.1431  1.4702
 7937SOL    MW431522   0.245   3.689   2.145 -0.2917 -0.4818  0.3841
 7938SOL     OW31523   4.114   1.865   5.649  0.2848  0.2926  0.0471
 7938SOL    HW231524   4.063   1.814   5.587 -0.4291  0.6267  0.3518
 7938SOL    HW331525   4.053   1.930   5.683  1.6082  2.6209 -1.7074
 7938SOL    MW431526   4.099   1.867   5.645 -0.6676  0.0303 -0.1857
 7939SOL     OW31527   4.003   5.873   0.485  0.0310  0.0957 -0.0394
 7939SOL    HW231528   3.992   5.779   0.497 -1.4748  0.0590 -1.3982
 7939SOL    HW331529   4.081   5.882   0.431  0.4749 -0.3216  0.5179
 7939SOL    MW431530   4.011   5.862   0.480  0.1151 -0.9487  0.0260
 7940SOL     OW31531   6.297   6.007   1.453  0.2482 -0.2735 -0.3819
 7940SOL    HW231532   6.363   6.005   1.384  1.6627 -0.8715  0.9499
 7940SOL    HW331533   6.214   6.008   1.406  1.1417 -1.7813 -2.0921
 7940SOL    MW431534   6.295   6.007   1.438 -0.0161 -0.3704 -0.0110
 7941SOL     OW31535   2.613   3.936   2.792 -0.8123  0.0421  0.4427
 7941SOL    HW231536   2.660   3.961   2.712 -0.5019 -0.3887  0.4904
 7941SOL    HW331537   2.626   3.842   2.799 -0.2481  0.1810  1.3778
 7941SOL    MW431538   2.621   3.927   2.782  0.4745 -0.7559  0.1783
 7942SOL     OW31539   4.286   3.934   4.746  0.0799  0.8069  0.1571
 7942SOL    HW231540   4.242   3.929   4.830 -0.6700  0.0076 -0.2711
 7942SOL    HW331541   4.215   3.934   4.681  0.6578  0.9283 -0.4954
 7942SOL    MW431542   4.271   3.934   4.748 -0.8249 -0.4978 -0.3141
 7943SOL     OW31543   4.278   4.903   0.283 -0.1140  0.2663  0.3997
 7943SOL    HW231544   4.298   4.843   0.355 -1.3773  0.7068  1.1503
 7943SOL    HW331545   4.300   4.854   0.204  0.2173 -0.6572  1.0530
 7943SOL    MW431546   4.283   4.889   0.282  0.0858 -0.6455  0.2310
 7944SOL     OW31547   5.865   0.263   6.285 -0.1849 -0.5582  0.2205
 7944SOL    HW231548   5.873   0.339   6.342 -1.0395 -1.2966  1.3797
 7944SOL    HW331549   5.935   0.204   6.313 -0.1487 -0.6212  0.0056
 7944SOL    MW431550   5.875   0.265   6.296  0.3654  0.0866 -0.1081
 7945SOL     OW31551   3.156   4.240   6.166  0.4777  0.1543 -0.2691
 7945SOL    HW231552   3.157   4.199   6.079 -0.7083 -0.4918  0.0006
 7945SOL    HW331553   3.131   4.169   6.225  0.3405  0.8103  0.4721
 7945SOL    MW431554   3.153   4.225   6.162 -0.1663  0.2722  0.6093
 7946SOL     OW31555   0.826   4.075   1.644 -0.2517 -0.2356  0.2805
 7946SOL    HW231556   0.865   4.154   1.680  0.8307  0.1947 -1.6767
 7946SOL    HW331557   0.897   4.011   1.643 -0.4134 -0.4155 -0.5122
 7946SOL    MW431558   0.840   4.077   1.648 -0.1930 -0.0724 -0.1878
 7947SOL     OW31559   5.816   2.604   3.335  0.3535  0.8510 -0.4505
 7947SOL    HW231560   5.838   2.647   3.417  1.7526  1.9572 -1.3608
 7947SOL    HW331561   5.822   2.673   3.269  0.5264 -0.2744 -1.6553
 7947SOL    MW431562   5.820   2.619   3.337  0.4747 -0.4000  0.6009
 7948SOL     OW31563   1.018   3.107   4.689 -0.1401  0.3718 -0.1868
 7948SOL    HW231564   1.026   3.172   4.759 -0.9425  0.1723  0.1055
 7948SOL    HW331565   1.052   3.027   4.727  1.9522  0.8553 -0.9346
 7948SOL    MW431566   1.023   3.105   4.703  0.6403 -0.5443  0.6447
 7949SOL     OW31567   2.621   0.227   0.609  0.2465 -0.1775  0.7184
 7949SOL    HW231568   2.598   0.135   0.601 -0.0291 -0.0402 -0.1344
 7949SOL    HW331569   2.547   0.267   0.655 -0.5855 -0.0132 -0.7116
 7949SOL    MW431570   2.608   0.220   0.614  0.5109  0.1573  0.2147
 7950SOL     OW31571   0.968   5.094   2.277 -0.3798  0.5886  0.1936
 7950SOL    HW231572   1.058   5.123   2.260 -0.3285  1.4857  1.8017
 7950SOL    HW331573   0.972   4.999   2.270  1.1513  0.4642  2.0503
 7950SOL    MW431574   0.980   5.085   2.273  0.4005 -0.3460 -1.3116
 7951SOL     OW31575   1.320   5.419   2.866 -0.5762  0.3491 -0.1902
 7951SOL    HW231576   1.241   5.428   2.920 -1.8658 -2.0095 -1.4916
 7951SOL    HW331577   1.375   5.357   2.914 -0.7944 -0.1338 -0.5435
 7951SOL    MW431578   1.317   5.412   2.879  0.1445 -0.3744  0.1900
 7952SOL     OW31579   5.157   1.473   3.323  0.5309  0.0994  0.1209
 7952SOL    HW231580   5.071   1.510   3.301  0.5957 -0.5942 -1.4255
 7952SOL    HW331581   5.148   1.379   3.308  1.7459  0.1005 -0.7376
 7952SOL    MW431582   5.145   1.466   3.318  0.1505 -0.7929  0.2078
 7953SOL     OW31583   5.834   2.898   0.418  0.2041  0.2175 -0.1782
 7953SOL    HW231584   5.857   2.911   0.510  0.4866  0.1648 -0.2406
 7953SOL    HW331585   5.760   2.837   0.420  1.4992 -1.4122 -0.0726
 7953SOL    MW431586   5.827   2.892   0.430  0.4777  0.4027 -0.0672
 7954SOL     OW31587   3.016   0.142   3.661  0.1098  0.0252 -0.3633
 7954SOL    HW231588   2.979   0.115   3.577 -2.0082 -0.7507  0.7406
 7954SOL    HW331589   3.042   0.060   3.703 -2.3017 -0.0528  1.1982
 7954SOL    MW431590   3.014   0.128   3.655 -0.0430 -0.2701 -0.0785
 7955SOL     OW31591   1.624   4.358   5.873  0.5694 -0.0474  0.5490
 7955SOL    HW231592   1.535   4.325   5.863  0.3354  0.6946  0.1144
 7955SOL    HW331593   1.680   4.282   5.857  0.0113 -0.6856  1.5108
 7955SOL    MW431594   1.620   4.344   5.870 -0.0410 -0.3248 -0.0009
 7956SOL     OW31595   0.088   0.231   1.250 -0.1765 -0.3394 -0.1668
 7956SOL    HW231596   0.007   0.180   1.259  1.1655 -2.3101  1.9397
 7956SOL    HW331597   0.110   0.256   1.340  2.0219 -0.6841 -0.5696
 7956SOL    MW431598   0.080   0.228   1.263 -0.2449 -0.1106  0.1139
 7957SOL     OW31599   0.652   5.388   2.442 -0.3085 -0.3687 -0.7569
 7957SOL    HW231600   0.716   5.317   2.445  0.1080 -0.0005  1.9112
 7957SOL    HW331601   0.696   5.462   2.483 -2.7209 -0.4420  2.3581
 7957SOL    MW431602   0.666   5.388   2.448 -0.3774 -0.2783  0.2817
 7958SOL     OW31603   6.004   1.134   1.238  0.0718 -0.0714  0.0034
 7958SOL    HW231604   5.958   1.169   1.315 -0.8807 -0.2171 -0.4830
 7958SOL    HW331605   5.989   1.200   1.170  1.7370  0.5353  0.1893
 7958SOL    MW431606   5.996   1.147   1.239  0.2136 -0.3279 -0.1944
 7959SOL     OW31607   6.076   5.543   3.569 -0.1253 -0.6147  0.0891
 7959SOL    HW231608   5.981   5.554   3.582 -0.1277 -2.3699  2.0857
 7959SOL    HW331609   6.084   5.462   3.518  0.3174 -0.0049 -0.8483
 7959SOL    MW431610   6.064   5.534   3.564  0.2150  0.0235  0.6569
 7960SOL     OW31611   5.803   1.811   6.389  0.3083  0.2040  0.5950
 7960SOL    HW231612   5.825   1.751   6.460  0.1292 -0.7155 -0.1076
 7960SOL    HW331613   5.781   1.754   6.316  0.4860  1.1407 -0.2002
 7960SOL    MW431614   5.803   1.796   6.389  0.0405 -0.7264  0.5974
 7961SOL     OW31615   0.795   2.186   5.123 -0.3403  0.1073 -0.3423
 7961SOL    HW231616   0.815   2.092   5.129 -0.1746  0.2123  3.3610
 7961SOL    HW331617   0.719   2.190   5.065 -2.0101 -2.7266  1.3498
 7961SOL    MW431618   0.787   2.174   5.116  0.1587  0.6125 -0.2697
 7962SOL     OW31619   5.022   1.218   0.905  0.2258 -0.2359  0.4960
 7962SOL    HW231620   5.101   1.233   0.853 -0.5644  2.8208 -0.0513
 7962SOL    HW331621   5.055   1.188   0.990  1.6349 -3.3829 -0.9914
 7962SOL    MW431622   5.037   1.216   0.910 -0.6142  0.4586  0.1574
 7963SOL     OW31623   1.821   0.361   0.346 -0.1279 -0.3564  0.5240
 7963SOL    HW231624   1.800   0.360   0.440  1.2440 -0.9283  0.8551
 7963SOL    HW331625   1.746   0.318   0.305 -0.6201 -0.3671  1.3968
 7963SOL    MW431626   1.808   0.355   0.353 -0.0614 -0.1047 -0.0846
 7964SOL     OW31627   6.420   3.979   4.486  0.3999 -0.7859  0.0250
 7964SOL    HW231628   6.421   4.039   4.561 -0.5729 -1.2806  0.4497
 7964SOL    HW331629   6.421   4.037   4.409 -0.4404 -0.2231  0.4243
 7964SOL    MW431630   6.421   3.995   4.486 -0.3103 -0.0542 -0.2514
 7965SOL     OW31631   0.467   0.147   4.439 -0.0436 -0.4910 -0.1004
 7965SOL    HW231632   0.464   0.241   4.460  1.9795 -0.5504  0.6481
 7965SOL    HW331633   0.479   0.144   4.344  0.5010  0.0530 -0.0576
 7965SOL    MW431634   0.468   0.159   4.429  0.0195 -0.7049  0.1823
 7966SOL     OW31635   2.478   0.810   3.366  0.5079 -0.1742 -0.2518
 7966SOL    HW231636   2.448   0.838   3.453  0.1413 -2.5219  0.4471
 7966SOL    HW331637   2.529   0.884   3.334  0.6503  0.7803  1.9600
 7966SOL    MW431638   2.480   0.824   3.373  0.4521  0.0932 -0.3928
 7967SOL     OW31639   3.174   1.035   0.564 -0.3351  0.0752  0.1461
 7967SOL    HW231640   3.202   0.954   0.522 -0.7777  0.2276 -0.4589
 7967SOL    HW331641   3.156   1.009   0.655 -1.3738 -0.7213 -0.2595
 7967SOL    MW431642   3.175   1.020   0.571 -0.8796 -0.0204 -0.0363
 7968SOL     OW31643   1.617   6.175   1.206  0.5495 -0.4111  0.3196
 7968SOL    HW231644   1.651   6.114   1.271 -0.8801 -0.4342  1.0904
 7968SOL    HW331645   1.575   6.244   1.257 -1.7527 -1.0981 -0.5440
 7968SOL    MW431646   1.616   6.176   1.221  0.5194  0.0914 -0.0545
 7969SOL     OW31647   6.092   4.634   4.427 -0.0613 -0.3057 -0.0119
 7969SOL    HW231648   6.111   4.663   4.516 -2.5672  0.5221  0.3331
 7969SOL    HW331649   6.069   4.714   4.379  0.9648 -0.7684 -1.3447
 7969SOL    MW431650   6.091   4.648   4.432  0.6148 -0.0545 -0.2688
 7970SOL     OW31651   3.195   0.591   1.056  0.2877 -0.1230  0.0868
 7970SOL    HW231652   3.210   0.686   1.056  1.9658 -0.3432  1.1458
 7970SOL    HW331653   3.101   0.582   1.070  0.0857  1.3842 -0.1173
 7970SOL    MW431654   3.185   0.602   1.058  0.4700 -0.5431 -0.2876
 7971SOL     OW31655   3.074   3.383   5.119  0.7127  0.0031 -0.3936
 7971SOL    HW231656   3.022   3.304   5.131  1.4263 -0.3444  0.5687
 7971SOL    HW331657   3.011   3.450   5.093 -0.1550 -0.5041  0.3355
 7971SOL    MW431658   3.059   3.381   5.117  0.5686 -0.2838 -0.3535
 7972SOL     OW31659   5.802   4.332   1.447  0.0778 -0.1143 -0.4036
 7972SOL    HW231660   5.768   4.265   1.389 -0.9897  1.2992 -1.4787
 7972SOL    HW331661   5.731   4.395   1.457  0.9641  0.7769  0.7261
 7972SOL    MW431662   5.788   4.332   1.441  0.1634 -0.4327 -0.3756
 7973SOL     OW31663   5.559   2.054   4.785  0.0480 -0.3662 -0.2496
 7973SOL    HW231664   5.488   2.105   4.746  0.2126 -0.2586 -0.4106
 7973SOL    HW331665   5.571   1.980   4.725  1.3956  0.6440 -1.3193
 7973SOL    MW431666   5.552   2.051   4.772  0.4879 -0.4070  0.5362
 7974SOL     OW31667   3.913   4.703   2.980 -0.0302  0.2308 -0.2337
 7974SOL    HW231668   4.004   4.696   2.951  1.2900  1.8971  3.0660
 7974SOL    HW331669   3.910   4.782   3.033 -3.2273 -0.2304  0.4815
 7974SOL    MW431670   3.924   4.712   2.983  0.2231 -0.2928 -0.0974
 7975SOL     OW31671   3.682   3.766   2.678 -0.0392  0.1581  0.4360
 7975SOL    HW231672   3.593   3.795   2.655 -0.0974 -0.5148 -0.2135
 7975SOL    HW331673   3.721   3.740   2.595  0.3376 -0.7285  0.8791
 7975SOL    MW431674   3.675   3.767   2.664 -0.2888 -0.3452 -0.2240
 7976SOL     OW31675   0.816   0.568   3.281 -0.8953  0.0609  0.5726
 7976SOL    HW231676   0.811   0.645   3.224 -1.5473  0.3996  1.0805
 7976SOL    HW331677   0.775   0.498   3.231  0.9795 -0.3304 -0.4798
 7976SOL    MW431678   0.810   0.569   3.267  0.3265  0.2075 -0.4061
 7977SOL     OW31679   2.814   4.193   1.610 -0.2266 -0.2812  0.2233
 7977SOL    HW231680   2.801   4.171   1.518 -2.1038  0.7359  0.1848
 7977SOL    HW331681   2.860   4.277   1.608 -1.8045  0.6096  0.1425
 7977SOL    MW431682   2.818   4.201   1.598  0.0895 -0.2885 -0.2427
 7978SOL     OW31683   4.246   3.092   4.576  0.3356  0.3166  0.5336
 7978SOL    HW231684   4.312   3.089   4.508 -0.6072 -1.0110 -0.3672
 7978SOL    HW331685   4.200   3.175   4.561  0.7362  0.4751  0.1617
 7978SOL    MW431686   4.248   3.103   4.565  0.0291  0.1505  0.0794
 7979SOL     OW31687   1.830   0.022   5.624 -0.7766  0.2016 -0.3118
 7979SOL    HW231688   1.845  -0.070   5.602  0.8515  0.3238  0.1727
 7979SOL    HW331689   1.905   0.047   5.678 -1.9221  1.4298  0.7858
 7979SOL    MW431690   1.842   0.013   5.628 -0.5016 -0.6143 -0.1999
 7980SOL     OW31691   3.588   6.070   1.257  0.3895  0.1231 -0.3705
 7980SOL    HW231692   3.525   6.142   1.266  1.1887  0.6445  1.7835
 7980SOL    HW331693   3.536   5.997   1.223 -0.7708  1.2897 -1.1876
 7980SOL    MW431694   3.573   6.070   1.254  0.3527 -0.4576 -0.1093
 7981SOL     OW31695   4.155   3.400   2.626  0.1994 -0.6829  0.2209
 7981SOL    HW231696   4.163   3.396   2.531  2.5492  2.2201  0.1599
 7981SOL    HW331697   4.096   3.474   2.642  1.2363  0.0108  0.9719
 7981SOL    MW431698   4.148   3.409   2.616  0.2260 -0.0454  0.0768
 7982SOL     OW31699   6.289   3.773   2.284 -0.0355  0.1337  0.0422
 7982SOL    HW231700   6.376   3.761   2.321 -0.7008 -1.0711  1.3057
 7982SOL    HW331701   6.249   3.843   2.336  0.6061  1.6867 -1.4305
 7982SOL    MW431702   6.295   3.781   2.296 -0.3894  0.0209  0.1518
 7983SOL     OW31703   4.319   2.594   0.860  0.0267 -0.8867  0.0745
 7983SOL    HW231704   4.307   2.598   0.955  0.0510 -0.6752  0.0694
 7983SOL    HW331705   4.346   2.504   0.843 -0.2471 -1.0009  0.2367
 7983SOL    MW431706   4.321   2.583   0.870  0.4033 -0.6355 -0.2029
 7984SOL     OW31707   3.584   3.095   3.711  0.4356  0.1511 -0.1655
 7984SOL    HW231708   3.614   3.070   3.623 -2.2760  0.5677 -1.3214
 7984SOL    HW331709   3.616   3.185   3.721  0.0420  0.4218 -1.1442
 7984SOL    MW431710   3.592   3.104   3.701  0.4651 -0.2306 -0.4397
 7985SOL     OW31711   2.196   5.668   3.006  0.1751  0.0888  0.1477
 7985SOL    HW231712   2.149   5.590   3.034  0.2377  0.8084  2.4347
 7985SOL    HW331713   2.137   5.710   2.943 -1.4179 -0.0105  1.5238
 7985SOL    MW431714   2.182   5.663   3.001  0.4890 -0.3854 -0.2196
 7986SOL     OW31715   2.439   4.528   3.475 -0.4929  0.4560  0.2426
 7986SOL    HW231716   2.478   4.615   3.483 -0.4661  0.6370 -1.4913
 7986SOL    HW331717   2.514   4.469   3.467 -0.5019  0.2002  1.7424
 7986SOL    MW431718   2.454   4.532   3.475  0.2873 -0.7100 -0.0604
 7987SOL     OW31719   5.060   5.362   0.414 -0.5046  0.1193 -0.1206
 7987SOL    HW231720   5.008   5.324   0.343  1.8406 -0.4797 -1.6333
 7987SOL    HW331721   5.128   5.411   0.369 -0.2705  1.6258  1.7899
 7987SOL    MW431722   5.062   5.363   0.398  0.2221 -0.0419  0.1409
 7988SOL     OW31723   2.977   3.123   2.835 -0.2137  0.4866  0.1398
 7988SOL    HW231724   2.959   3.165   2.751 -0.3802 -0.3366 -0.2502
 7988SOL    HW331725   3.058   3.073   2.820  0.1911  0.9606  0.7052
 7988SOL    MW431726   2.985   3.122   2.822 -0.4459  0.0511 -0.8350
 7989SOL     OW31727   0.793   5.880   5.665  0.5121 -0.1306 -0.4764
 7989SOL    HW231728   0.772   5.791   5.693  2.4853 -0.6310 -0.4509
 7989SOL    HW331729   0.833   5.870   5.579 -0.5515  0.8920 -1.1136
 7989SOL    MW431730   0.796   5.867   5.657 -0.6061 -0.0925  0.2077
 7990SOL     OW31731   6.100   4.881   0.253 -0.1896  0.4048  0.3939
 7990SOL    HW231732   6.107   4.795   0.213 -0.2385 -0.1365  1.4995
 7990SOL    HW331733   6.012   4.883   0.291  0.1245  0.5829  1.1485
 7990SOL    MW431734   6.089   4.870   0.253 -0.8161  0.3781  0.1469
 7991SOL     OW31735   6.195   3.896   4.620  0.1153  0.1017  0.1017
 7991SOL    HW231736   6.189   3.978   4.670  3.2299  0.4091  0.1615
 7991SOL    HW331737   6.268   3.910   4.560  1.8693 -3.1429  1.2423
 7991SOL    MW431738   6.204   3.909   4.619 -0.3357  0.3526  0.2428
 7992SOL     OW31739   4.297   5.415   2.765  0.0106 -0.0068 -0.1020
 7992SOL    HW231740   4.255   5.343   2.812  2.0951 -0.8616  0.5489
 7992SOL    HW331741   4.259   5.411   2.677  0.5863 -2.4137 -0.3118
 7992SOL    MW431742   4.286   5.405   2.759 -0.3569 -0.1414 -0.3696
 7993SOL     OW31743   5.737   4.283   0.595 -0.0140 -0.1243  0.2550
 7993SOL    HW231744   5.663   4.337   0.623  0.6466  0.9902 -0.0968
 7993SOL    HW331745   5.748   4.302   0.502  0.1979 -0.9206  0.1052
 7993SOL    MW431746   5.729   4.292   0.586  0.1036  0.5552  0.0379
 7994SOL     OW31747   3.337   1.659   4.439 -0.4569  0.1827  0.0739
 7994SOL    HW231748   3.411   1.686   4.494  0.5403 -1.8693 -0.1638
 7994SOL    HW331749   3.307   1.578   4.478 -1.2156 -0.1188 -1.0942
 7994SOL    MW431750   3.343   1.652   4.451 -0.9451 -0.3137  0.5444
 7995SOL     OW31751   1.644   5.969   4.515  0.0593 -0.3428 -0.1762
 7995SOL    HW231752   1.672   5.961   4.606 -0.2635  1.2111  0.0848
 7995SOL    HW331753   1.550   5.988   4.520  0.0945  0.0424 -0.8118
 7995SOL    MW431754   1.635   5.970   4.528  0.0580 -0.2376 -0.1703
 7996SOL     OW31755   5.872   5.868   0.869  0.0950 -0.6616  0.4736
 7996SOL    HW231756   5.809   5.926   0.826 -1.4248 -2.5243  0.0641
 7996SOL    HW331757   5.955   5.887   0.825 -0.4507  0.8385  0.0184
 7996SOL    MW431758   5.875   5.879   0.857 -0.5082 -0.0000 -0.4315
 7997SOL     OW31759   3.064   4.366   5.818  0.3357  0.8832  0.1644
 7997SOL    HW231760   2.994   4.312   5.856  0.3632  1.7317  1.4963
 7997SOL    HW331761   3.145   4.326   5.848  0.4516 -0.0862 -1.3621
 7997SOL    MW431762   3.065   4.354   5.827 -0.4039  0.1096 -0.3352
 7998SOL     OW31763   5.172   0.299   2.357  0.2173 -0.0391  0.0748
 7998SOL    HW231764   5.189   0.372   2.297  1.0925  0.4003  0.8390
 7998SOL    HW331765   5.142   0.229   2.300 -1.0533  1.0309 -0.6333
 7998SOL    MW431766   5.171   0.300   2.341 -0.4325 -0.2088 -0.5132
 7999SOL     OW31767   6.332   0.115   0.925  0.0625 -1.0463  0.6266
 7999SOL    HW231768   6.273   0.040   0.915  0.3466 -1.0180 -2.2783
 7999SOL    HW331769   6.420   0.077   0.914  0.3500 -0.5974  1.3554
 7999SOL    MW431770   6.336   0.100   0.922  0.1620  0.0415  0.3470
 8000SOL     OW31771   1.803   2.700   5.582 -0.0159 -1.0139 -0.8343
 8000SOL    HW231772   1.804   2.671   5.491  0.8134  1.1147 -1.5907
 8000SOL    HW331773   1.865   2.643   5.626  0.8081 -1.0637 -2.0062
 8000SOL    MW431774   1.812   2.689   5.576 -0.2284 -0.4120  0.0990
 8001SOL     OW31775   3.177   3.463   0.771 -0.3267 -0.1876 -0.6813
 8001SOL    HW231776   3.125   3.419   0.703 -1.2799  0.9290 -0.7053
 8001SOL    HW331777   3.143   3.553   0.773 -1.7515 -0.6493  2.6643
 8001SOL    MW431778   3.165   3.469   0.762 -0.3769 -0.1908 -0.0515
 8002SOL     OW31779   5.788   3.703   4.801 -0.2131 -0.3877 -0.0001
 8002SOL    HW231780   5.846   3.632   4.773  1.3397  0.6439  0.4405
 8002SOL    HW331781   5.735   3.722   4.724  3.2734  1.7351 -2.1506
 8002SOL    MW431782   5.789   3.696   4.787 -0.2167  0.2540 -0.9855
 8003SOL     OW31783   0.472   0.630   4.686 -0.1675  0.2117 -0.0734
 8003SOL    HW231784   0.556   0.665   4.656 -0.0386  0.4349  0.5234
 8003SOL    HW331785   0.406   0.687   4.646  0.0462  1.2830  1.0244
 8003SOL    MW431786   0.474   0.642   4.677 -0.0010  0.1097  0.2233
 8004SOL     OW31787   1.317   1.800   0.443 -0.0833  0.4692 -0.1834
 8004SOL    HW231788   1.339   1.832   0.356 -1.3123  1.8145 -0.0311
 8004SOL    HW331789   1.402   1.782   0.485  0.5721  1.5416 -1.0144
 8004SOL    MW431790   1.331   1.802   0.437  0.1783  0.7967  0.5958
 8005SOL     OW31791   2.810   4.743   3.947 -0.0269  0.7590 -0.3219
 8005SOL    HW231792   2.877   4.779   4.005  2.3198 -1.6207 -1.3818
 8005SOL    HW331793   2.844   4.759   3.858 -0.3944 -1.2641 -0.8682
 8005SOL    MW431794   2.823   4.750   3.943  0.3175 -0.0336  0.0630
 8006SOL     OW31795   4.053   4.841   6.135 -0.5083 -0.2675  0.7799
 8006SOL    HW231796   3.992   4.893   6.082 -1.0839  0.3514  2.0041
 8006SOL    HW331797   4.138   4.856   6.094 -0.9634 -0.0176 -0.1167
 8006SOL    MW431798   4.056   4.850   6.122 -0.4292  0.3697  0.1839
 8007SOL     OW31799   4.835   5.614   4.632 -1.1867 -0.6892  0.6989
 8007SOL    HW231800   4.859   5.522   4.620  1.9952  0.3458 -2.9516
 8007SOL    HW331801   4.842   5.629   4.726  0.4644 -3.6750  1.1699
 8007SOL    MW431802   4.839   5.604   4.643 -0.1176  0.8846  0.5350
 8008SOL     OW31803   5.119   3.474   0.590 -0.2695  0.2988 -0.1299
 8008SOL    HW231804   5.131   3.567   0.571 -1.0199  0.7493  1.4462
 8008SOL    HW331805   5.045   3.471   0.650  1.6484 -1.0018  2.3612
 8008SOL    MW431806   5.111   3.486   0.595  0.2268  0.4124 -0.0931
 8009SOL     OW31807   0.627   0.919   3.371 -0.2672  0.2850 -0.0288
 8009SOL    HW231808   0.592   0.999   3.331  1.0011  0.3152 -1.1267
 8009SOL    HW331809   0.707   0.900   3.322 -0.1296 -1.2331  0.7236
 8009SOL    MW431810   0.633   0.927   3.360 -0.3472 -0.2273  0.1982
 8010SOL     OW31811   3.168   2.209   3.072  0.1528 -0.0025 -0.0647
 8010SOL    HW231812   3.091   2.237   3.023  0.3257  0.1778 -0.2346
 8010SOL    HW331813   3.230   2.281   3.062  0.0503  0.2114  0.7390
 8010SOL    MW431814   3.166   2.222   3.064  0.0500  0.4207  0.3382
 8011SOL     OW31815   1.654   6.353   2.510 -0.6954  0.1400  0.8888
 8011SOL    HW231816   1.645   6.319   2.421  1.8333 -1.2886  1.0881
 8011SOL    HW331817   1.724   6.418   2.504 -0.4554 -0.0177  1.8554
 8011SOL    MW431818   1.662   6.357   2.498  0.0709  0.6746 -0.4086
 8012SOL     OW31819   2.007   2.847   0.258  0.2693  0.3851 -0.1448
 8012SOL    HW231820   1.978   2.827   0.347  1.2866  1.9720  0.5978
 8012SOL    HW331821   1.932   2.890   0.218  0.0021  0.2017  0.1515
 8012SOL    MW431822   1.993   2.850   0.265 -0.2416  0.0231  0.0475
 8013SOL     OW31823   2.490   1.791   2.492 -0.6615 -0.0564  0.1118
 8013SOL    HW231824   2.584   1.811   2.493 -0.2755 -1.6726  2.2350
 8013SOL    HW331825   2.448   1.866   2.533 -0.3542  0.7615 -1.0248
 8013SOL    MW431826   2.497   1.804   2.497  0.7046 -0.2155  0.6197
 8014SOL     OW31827   2.094   4.123   2.921  0.1376 -0.2601 -0.1305
 8014SOL    HW231828   2.075   4.047   2.866 -0.6334 -0.9893  1.1041
 8014SOL    HW331829   2.089   4.198   2.861 -2.7403 -0.7972 -0.7029
 8014SOL    MW431830   2.091   4.123   2.905 -0.0020 -0.3650 -0.0338
 8015SOL     OW31831   0.765   5.496   5.102 -0.6862 -0.2237 -0.2840
 8015SOL    HW231832   0.670   5.507   5.112 -0.7352 -1.5099  0.9656
 8015SOL    HW331833   0.791   5.444   5.178  0.8154 -1.0251 -1.3003
 8015SOL    MW431834   0.756   5.491   5.113  0.2792 -0.3027 -0.4041
 8016SOL     OW31835   1.323   2.385   3.061 -0.1425  0.1425 -0.2718
 8016SOL    HW231836   1.330   2.472   3.098 -1.3074  0.5107 -0.8484
 8016SOL    HW331837   1.272   2.397   2.980 -1.3546 -1.2131  0.2358
 8016SOL    MW431838   1.317   2.398   3.055  0.2612 -0.4753  0.7020
 8017SOL     OW31839   5.143   6.213   5.227 -0.0658 -0.1914 -0.1328
 8017SOL    HW231840   5.198   6.254   5.294 -0.2157  0.0230 -0.1358
 8017SOL    HW331841   5.202   6.194   5.155  0.2707 -1.2363  0.4033
 8017SOL    MW431842   5.158   6.216   5.226 -0.7058 -0.1358  0.4067
 8018SOL     OW31843   2.374   3.807   2.225  0.0295  0.0650  0.1951
 8018SOL    HW231844   2.425   3.888   2.228 -1.3304  0.9896 -0.9010
 8018SOL    HW331845   2.441   3.738   2.218  1.2272  1.0122  1.5907
 8018SOL    MW431846   2.390   3.809   2.224 -0.5094  0.0498 -0.1043
 8019SOL     OW31847   2.905   0.593   0.813  0.7257  0.3519  0.4532
 8019SOL    HW231848   2.814   0.570   0.799  1.1616 -1.0853 -0.1536
 8019SOL    HW331849   2.902   0.663   0.878 -0.7901  0.2355  0.5390
 8019SOL    MW431850   2.893   0.599   0.820  0.0223  0.5304 -0.0005
 8020SOL     OW31851   5.911   6.058   1.490 -0.0409  0.1559 -0.1009
 8020SOL    HW231852   5.816   6.054   1.476 -0.3557  0.6183  1.6238
 8020SOL    HW331853   5.925   6.013   1.573  0.9695  1.8428  0.7006
 8020SOL    MW431854   5.900   6.052   1.499 -0.0416  0.1326 -0.3915
 8021SOL     OW31855   4.090   2.013   3.291  0.0685 -0.0931 -0.0036
 8021SOL    HW231856   4.059   1.991   3.203 -0.4703 -0.5353  0.2884
 8021SOL    HW331857   4.174   2.056   3.277 -0.6929  1.1850 -0.8297
 8021SOL    MW431858   4.097   2.015   3.278 -0.4863 -0.5811  0.4564
 8022SOL     OW31859   4.259   5.204   5.611 -0.0762  0.0144  0.7311
 8022SOL    HW231860   4.249   5.118   5.570 -0.0972 -0.0821  0.9388
 8022SOL    HW331861   4.320   5.189   5.683  2.5079  0.7738 -1.1328
 8022SOL    MW431862   4.266   5.190   5.615 -0.5727  0.2520 -0.2053
 8023SOL     OW31863   0.078   3.774   2.973  0.6325  0.0423  0.1765
 8023SOL    HW231864   0.036   3.707   2.921 -0.1318  1.6034 -1.3026
 8023SOL    HW331865   0.010   3.840   2.989  1.5993  0.9566  0.7257
 8023SOL    MW431866   0.064   3.774   2.968  0.3674  0.5311  0.0481
 8024SOL     OW31867   3.352   0.139   4.010  0.0770 -0.0529 -0.4969
 8024SOL    HW231868   3.270   0.182   3.988  0.9370  1.7472 -0.3648
 8024SOL    HW331869   3.411   0.211   4.032  1.0520 -1.3956  1.5868
 8024SOL    MW431870   3.349   0.154   4.010 -0.3015 -0.3512  0.7506
 8025SOL     OW31871   4.230   0.230   1.878 -0.8677  0.8936 -0.4011
 8025SOL    HW231872   4.143   0.269   1.891 -0.4922  1.0852  2.0537
 8025SOL    HW331873   4.291   0.301   1.898 -0.1731 -0.4318  2.7475
 8025SOL    MW431874   4.226   0.245   1.882 -0.0365 -0.6583 -0.6304
 8026SOL     OW31875   1.071   5.147   5.355 -0.0934  0.0725  0.3390
 8026SOL    HW231876   1.135   5.132   5.424  0.6870  2.2163  0.1835
 8026SOL    HW331877   1.103   5.096   5.280  0.8097  0.2230  0.6145
 8026SOL    MW431878   1.084   5.139   5.354 -0.2485  0.6958 -0.4256
 8027SOL     OW31879   3.163   4.238   0.477  0.1764  0.0197 -0.6497
 8027SOL    HW231880   3.230   4.184   0.435 -0.1338 -0.5919 -0.3632
 8027SOL    HW331881   3.171   4.323   0.434  1.3415  0.0451 -0.4160
 8027SOL    MW431882   3.173   4.242   0.465 -0.0390 -0.1835  0.1516
 8028SOL     OW31883   1.982   2.255   2.591 -0.3120  0.2623  0.0606
 8028SOL    HW231884   2.024   2.266   2.676 -2.4797 -0.7616  1.3419
 8028SOL    HW331885   1.924   2.180   2.602  0.7874 -1.2105 -2.9495
 8028SOL    MW431886   1.980   2.246   2.603 -0.6919 -0.2770  0.8400
 8029SOL     OW31887   1.938   2.513   4.086 -0.6283 -0.5408 -0.0049
 8029SOL    HW231888   2.014   2.546   4.037 -0.3676 -0.2905  0.5574
 8029SOL    HW331889   1.972   2.496   4.174 -1.1569 -0.7125  0.1696
 8029SOL    MW431890   1.953   2.515   4.091  0.6119 -0.1656 -0.2775
 8030SOL     OW31891   5.042   3.862   3.254 -0.3219  0.4426 -0.3892
 8030SOL    HW231892   5.022   3.847   3.347 -0.8112  0.7975 -0.4358
 8030SOL    HW331893   5.004   3.787   3.209  0.4672 -0.0608 -0.2483
 8030SOL    MW431894   5.035   3.850   3.261  1.0815 -0.3015 -0.1964
 8031SOL     OW31895   4.861   5.070   2.679  0.2933  0.2183 -0.1566
 8031SOL    HW231896   4.941   5.075   2.732  2.0705 -1.6261 -2.4874
 8031SOL    HW331897   4.878   5.002   2.615 -2.5210  0.9715 -1.8907
 8031SOL    MW431898   4.874   5.062   2.678  0.1175 -0.1297  0.3390
 8032SOL     OW31899   3.589   6.109   0.794  0.8215 -0.4289 -0.4636
 8032SOL    HW231900   3.645   6.090   0.870 -1.0931  0.8127  1.3836
 8032SOL    HW331901   3.637   6.176   0.746  1.4276 -0.1681  0.4609
 8032SOL    MW431902   3.603   6.115   0.798  0.6158 -0.3409 -0.2714
 8033SOL     OW31903   1.185   1.975   1.565 -0.8695 -0.2904 -0.5755
 8033SOL    HW231904   1.130   1.999   1.639 -0.2173  0.2863 -0.2655
 8033SOL    HW331905   1.212   2.058   1.526 -1.1163 -0.5864 -1.3980
 8033SOL    MW431906   1.182   1.989   1.570  0.0664 -0.4695 -0.0024
 8034SOL     OW31907   5.196   2.767   0.754  0.0922  0.1383  0.2899
 8034SOL    HW231908   5.175   2.721   0.835  0.0227  1.3357  0.9777
 8034SOL    HW331909   5.275   2.724   0.722  0.4939  0.0595  1.3433
 8034SOL    MW431910   5.204   2.755   0.761  0.3708 -0.8798  0.4199
 8035SOL     OW31911   6.340   2.959   2.445  0.2970 -0.0833  0.5354
 8035SOL    HW231912   6.314   2.990   2.358  1.7026 -0.6780 -0.1460
 8035SOL    HW331913   6.429   2.992   2.456  0.2328 -0.2540  1.6296
 8035SOL    MW431914   6.348   2.967   2.435  0.5276  0.1236 -0.8911
 8036SOL     OW31915   1.269   2.435   2.564 -0.2696  0.0965 -0.0381
 8036SOL    HW231916   1.183   2.396   2.556 -0.3377 -0.1378  1.5112
 8036SOL    HW331917   1.263   2.518   2.518 -1.3723  0.1549  0.2062
 8036SOL    MW431918   1.257   2.441   2.557 -0.8346 -0.1991 -0.5912
 8037SOL     OW31919   2.802   5.172   4.704 -0.1974  0.2635  0.0663
 8037SOL    HW231920   2.742   5.217   4.764  0.4492 -0.1399  1.0282
 8037SOL    HW331921   2.768   5.193   4.617 -1.6550  0.1607  0.5867
 8037SOL    MW431922   2.789   5.181   4.700  0.4125 -0.3975  0.0172
 8038SOL     OW31923   0.120   6.263   4.956  0.4212 -0.2141  0.1890
 8038SOL    HW231924   0.127   6.179   5.001 -0.1615 -1.4922 -1.9174
 8038SOL    HW331925   0.026   6.284   4.960  0.2899 -0.5599 -0.7079
 8038SOL    MW431926   0.108   6.255   4.962 -0.1479  0.5957  0.1724
 8039SOL     OW31927   5.716   6.312   4.499  0.0733 -0.1292  0.4192
 8039SOL    HW231928   5.721   6.334   4.592 -0.0038 -2.1857  0.9500
 8039SOL    HW331929   5.798   6.345   4.462  0.0905  0.7306  1.1939
 8039SOL    MW431930   5.727   6.320   4.506  0.3162 -0.1451 -0.0089
 8040SOL     OW31931   4.684   2.144   1.788 -0.6366 -0.4362  0.0739
 8040SOL    HW231932   4.623   2.161   1.860 -1.3372 -2.3254 -0.0281
 8040SOL    HW331933   4.745   2.218   1.791 -0.8814 -0.2574  2.3522
 8040SOL    MW431934   4.684   2.156   1.798  0.3488  0.0580 -0.0111
 8041SOL     OW31935   2.731   1.791   4.234 -0.4043  0.4813  1.0085
 8041SOL    HW231936   2.821   1.811   4.211 -0.6085 -0.6384 -0.9400
 8041SOL    HW331937   2.738   1.722   4.300  0.1914 -0.6204 -0.1607
 8041SOL    MW431938   2.743   1.785   4.240  0.0360  0.7112  0.2910
 8042SOL     OW31939   0.612   0.634   1.927  0.4038 -0.0937 -0.4058
 8042SOL    HW231940   0.655   0.551   1.944  0.9475  0.1675 -0.4666
 8042SOL    HW331941   0.556   0.617   1.851  0.9471 -0.2607 -0.7732
 8042SOL    MW431942   0.610   0.621   1.919  0.2871 -0.0852  0.0003
 8043SOL     OW31943   1.133   4.573   5.815  0.0951 -0.0276 -0.1522
 8043SOL    HW231944   1.171   4.621   5.888  0.5769  0.6391 -0.8337
 8043SOL    HW331945   1.169   4.614   5.737 -2.0556  0.6862 -0.8527
 8043SOL    MW431946   1.142   4.584   5.814 -0.2009 -0.4918  0.7110
 8044SOL     OW31947   4.233   5.695   4.623  0.2328  0.1579  0.0312
 8044SOL    HW231948   4.294   5.643   4.570 -0.0544 -1.4608  1.2131
 8044SOL    HW331949   4.199   5.634   4.688  1.3879  2.2565  2.8183
 8044SOL    MW431950   4.237   5.680   4.625  0.3076 -0.4782 -0.6699
 8045SOL     OW31951   4.034   3.872   5.217  0.6138  0.4001 -0.2582
 8045SOL    HW231952   3.953   3.822   5.229 -0.5669  1.9706 -1.1969
 8045SOL    HW331953   4.097   3.829   5.275 -1.1353 -0.3125  1.2522
 8045SOL    MW431954   4.031   3.860   5.226 -0.1754 -0.2848 -0.7191
 8046SOL     OW31955   2.487   0.680   4.173  0.1282  0.4040 -0.0595
 8046SOL    HW231956   2.521   0.657   4.259  1.1517  1.6616 -0.0956
 8046SOL    HW331957   2.392   0.669   4.182  0.3605 -1.5118  0.5621
 8046SOL    MW431958   2.479   0.676   4.186 -0.3196  0.3843  0.1417
 8047SOL     OW31959   4.818   0.603   1.605 -0.3915 -0.7414  0.7434
 8047SOL    HW231960   4.754   0.614   1.535  0.4059 -0.7971 -0.0096
 8047SOL    HW331961   4.858   0.690   1.616 -0.3983 -0.7712  1.0140
 8047SOL    MW431962   4.815   0.616   1.597  0.1395 -0.3707  0.5885
 8048SOL     OW31963   4.148   6.238   5.523 -0.0843 -0.1770  0.0233
 8048SOL    HW231964   4.186   6.256   5.609 -0.0560 -3.0462  0.7239
 8048SOL    HW331965   4.221   6.207   5.470 -0.5556 -0.9973 -0.1659
 8048SOL    MW431966   4.163   6.236   5.528 -0.1273  0.0027 -0.3777
 8049SOL     OW31967   6.339   0.089   6.310 -0.0768  0.5020 -0.3890
 8049SOL    HW231968   6.309   0.175   6.280 -1.0513  0.4352  0.3704
 8049SOL    HW331969   6.359   0.042   6.229 -0.2605  1.1750 -0.8395
 8049SOL    MW431970   6.338   0.095   6.295 -0.3436 -0.0261  0.0712
 8050SOL     OW31971   3.698   2.179   2.327  0.1966  0.3394 -0.4210
 8050SOL    HW231972   3.676   2.207   2.238  0.0443  1.9441  0.0802
 8050SOL    HW331973   3.782   2.135   2.319  0.6147  1.2563 -1.2632
 8050SOL    MW431974   3.706   2.177   2.314 -0.0667 -0.2188 -0.1183
 8051SOL     OW31975   6.311   0.752   3.138 -0.2376  0.0862  0.2241
 8051SOL    HW231976   6.250   0.825   3.129 -2.2643 -1.5969 -0.2262
 8051SOL    HW331977   6.265   0.689   3.193  0.9345 -1.4312 -0.4743
 8051SOL    MW431978   6.297   0.754   3.144  0.0894 -0.4145 -0.5694
 8052SOL     OW31979   3.952   2.958   0.477 -0.0752  0.3339 -0.3880
 8052SOL    HW231980   4.024   2.985   0.420  1.3352 -1.9514  0.1575
 8052SOL    HW331981   3.935   2.867   0.452 -0.9387 -0.0131  1.3339
 8052SOL    MW431982   3.959   2.949   0.466  0.2561 -0.5156 -0.4451
 8053SOL     OW31983   6.391   1.340   6.079 -0.0815  0.5071 -0.2064
 8053SOL    HW231984   6.399   1.427   6.041  1.6192  0.4241 -0.1401
 8053SOL    HW331985   6.375   1.355   6.172  4.4163  0.9628  0.7247
 8053SOL    MW431986   6.390   1.353   6.086 -0.1544  0.1128  0.3384
 8054SOL     OW31987   0.881   1.303   1.242 -0.0301 -0.4163 -0.3133
 8054SOL    HW231988   0.890   1.383   1.294 -0.4117 -0.3832 -0.2944
 8054SOL    HW331989   0.970   1.271   1.231  0.1111 -0.0625 -0.2023
 8054SOL    MW431990   0.894   1.310   1.248 -0.2448 -0.1056  0.0291
 8055SOL     OW31991   3.335   6.246   1.294  1.0157 -0.2028 -0.3472
 8055SOL    HW231992   3.273   6.268   1.223  0.5700 -1.2732 -0.3059
 8055SOL    HW331993   3.297   6.169   1.335  3.1848 -1.9155 -1.3544
 8055SOL    MW431994   3.322   6.239   1.290  0.4107  0.4808  0.1249
 8056SOL     OW31995   4.091   2.967   5.235 -0.0577  0.2669 -0.1126
 8056SOL    HW231996   4.173   3.017   5.238  0.0755 -0.0007  1.9231
 8056SOL    HW331997   4.024   3.032   5.218  0.3220  0.8569  0.6033
 8056SOL    MW431998   4.093   2.982   5.233  0.1132 -0.5923  0.5666
 8057SOL     OW31999   0.704   0.590   3.527 -0.2113  0.3683  0.4245
 8057SOL    HW232000   0.633   0.653   3.531 -1.4142 -0.9601  0.8044
 8057SOL    HW332001   0.719   0.577   3.433 -2.2375 -1.2057  0.2615
 8057SOL    MW432002   0.697   0.597   3.515  0.1953  0.1850 -0.0470
 8058SOL     OW32003   2.676   2.306   3.173 -0.0133 -0.0857  0.3411
 8058SOL    HW232004   2.638   2.373   3.115 -0.4340  0.3383  1.0996
 8058SOL    HW332005   2.744   2.353   3.221  1.2743 -0.7502 -0.7426
 8058SOL    MW432006   2.680   2.321   3.171 -0.6508  0.1763  0.2038
 8059SOL     OW32007   4.489   1.823   1.410 -0.0339  0.3045 -0.4155
 8059SOL    HW232008   4.562   1.820   1.472 -1.9034  0.8807  1.9776
 8059SOL    HW332009   4.460   1.732   1.403 -0.0164  0.2810 -0.1963
 8059SOL    MW432010   4.495   1.810   1.417  0.0722 -0.2364  0.1752
 8060SOL     OW32011   1.523   2.582   5.755 -0.4915  0.8049 -0.0016
 8060SOL    HW232012   1.484   2.584   5.668 -2.0255  0.5033  0.6442
 8060SOL    HW332013   1.602   2.636   5.747  0.7792 -1.2099 -2.1692
 8060SOL    MW432014   1.529   2.590   5.742  0.4346 -0.2004 -0.4126
 8061SOL     OW32015   4.049   1.022   3.504  0.0705  0.4233 -0.0555
 8061SOL    HW232016   4.005   0.937   3.511  1.5703 -0.3047  1.3684
 8061SOL    HW332017   4.102   1.015   3.425  1.1729 -0.4983  0.7321
 8061SOL    MW432018   4.050   1.010   3.495 -0.2763 -0.5309 -0.1626
 8062SOL     OW32019   1.538   6.202   5.883  0.5128  0.7021 -0.7827
 8062SOL    HW232020   1.550   6.238   5.971 -0.5810  0.3395 -0.4741
 8062SOL    HW332021   1.532   6.280   5.826  1.4359  0.9338 -0.5908
 8062SOL    MW432022   1.539   6.217   5.887  0.0475 -0.0897  0.2645
 8063SOL     OW32023   3.330   0.862   3.282 -0.1796 -0.0761 -0.5949
 8063SOL    HW232024   3.409   0.870   3.229  0.3318  0.2410  0.1966
 8063SOL    HW332025   3.342   0.780   3.331 -0.6665 -0.3902 -0.9806
 8063SOL    MW432026   3.342   0.852   3.281 -0.2282 -0.1475 -0.2562
 8064SOL     OW32027   1.187   1.209   4.284 -0.5266  0.1295 -0.6410
 8064SOL    HW232028   1.274   1.230   4.250 -0.2871  2.8409  1.3410
 8064SOL    HW332029   1.174   1.117   4.262  3.8244 -1.0703  0.9995
 8064SOL    MW432030   1.197   1.200   4.276  0.3856  0.2083  0.1333
 8065SOL     OW32031   2.778   5.222   1.693 -0.5567 -0.0396  0.4042
 8065SOL    HW232032   2.789   5.297   1.633 -2.2296 -0.6687 -0.7784
 8065SOL    HW332033   2.786   5.145   1.636 -1.0119 -0.6944  1.2071
 8065SOL    MW432034   2.780   5.222   1.677 -0.1273  0.4199 -0.4715
 8066SOL     OW32035   1.511   3.778   4.971  0.4003 -0.2593  0.1796
 8066SOL    HW232036   1.591   3.830   4.973 -0.5856  1.2742  1.5856
 8066SOL    HW332037   1.487   3.774   4.878 -1.1203  4.5464  0.1092
 8066SOL    MW432038   1.518   3.784   4.959 -0.2639  0.2683 -0.4069
 8067SOL     OW32039   5.557   5.161   6.274  0.3880  0.1817 -0.0641
 8067SOL    HW232040   5.487   5.198   6.219 -1.1112 -0.4318  1.3604
 8067SOL    HW332041   5.608   5.237   6.302 -0.7066  0.8369  0.2010
 8067SOL    MW432042   5.554   5.176   6.270 -0.7567  0.4047  0.3177
 8068SOL     OW32043   1.026   0.458   2.999 -0.5619  0.3143  0.6386
 8068SOL    HW232044   0.962   0.527   2.983  0.3954  0.8061 -1.3972
 8068SOL    HW332045   1.092   0.499   3.055 -0.6446  0.6764  0.4770
 8068SOL    MW432046   1.027   0.472   3.004 -0.3017  0.4879 -0.1006
 8069SOL     OW32047   2.955   2.651   4.973  0.1109 -0.0527  0.5090
 8069SOL    HW232048   3.022   2.606   4.921 -0.4140 -1.1082  0.7186
 8069SOL    HW332049   3.004   2.715   5.024  0.8042  0.0708 -0.2806
 8069SOL    MW432050   2.971   2.653   4.973 -0.4349 -0.6542  0.1011
 8070SOL     OW32051   0.484   1.705   3.586  0.2958  0.5713 -0.3531
 8070SOL    HW232052   0.525   1.764   3.649 -0.0830 -0.3268  0.7693
 8070SOL    HW332053   0.448   1.763   3.519 -0.9707  1.7163  1.2444
 8070SOL    MW432054   0.485   1.720   3.586 -0.1327  0.5981 -0.3723
 8071SOL     OW32055   4.822   1.055   1.695  0.0158  0.0067  0.2747
 8071SOL    HW232056   4.789   1.035   1.783  2.0037 -1.3164  0.7909
 8071SOL    HW332057   4.802   1.148   1.683  2.2946  1.0965  3.4346
 8071SOL    MW432058   4.815   1.065   1.705  0.0788 -0.2364  0.2584
 8072SOL     OW32059   2.104   0.290   2.160 -0.4027  0.6635  0.0302
 8072SOL    HW232060   2.089   0.383   2.177 -1.2852  0.5099  0.1128
 8072SOL    HW332061   2.088   0.280   2.066  1.7859  0.9818 -0.4431
 8072SOL    MW432062   2.100   0.301   2.149 -0.1364 -0.5047  0.0310
 8073SOL     OW32063   1.686   1.311   5.207  0.4855 -0.0852  0.3495
 8073SOL    HW232064   1.764   1.315   5.263  1.0326  1.8978 -0.4644
 8073SOL    HW332065   1.662   1.403   5.193 -1.0628 -0.6149 -0.7272
 8073SOL    MW432066   1.693   1.324   5.212  0.0145 -0.3163 -0.0493
 8074SOL     OW32067   0.809   5.694   6.357  0.3514  0.4326  0.2169
 8074SOL    HW232068   0.892   5.662   6.393 -0.5274 -0.1984  1.7731
 8074SOL    HW332069   0.820   5.688   6.262  1.9439  0.0265  0.3919
 8074SOL    MW432070   0.822   5.689   6.349 -0.2199 -0.5385 -0.5772
 8075SOL     OW32071   0.633   0.289   4.757  0.2640  1.0256 -0.2037
 8075SOL    HW232072   0.706   0.288   4.695  1.0755  1.5412  0.7159
 8075SOL    HW332073   0.624   0.197   4.785  1.0078  1.0629  0.1803
 8075SOL    MW432074   0.641   0.276   4.753 -0.1101 -0.2549  0.3680
 8076SOL     OW32075   4.847   1.945   0.948 -0.0944  0.1990  0.8289
 8076SOL    HW232076   4.817   2.019   1.000  0.4510  1.7455 -0.9115
 8076SOL    HW332077   4.773   1.924   0.891  0.4072  0.7594 -0.0548
 8076SOL    MW432078   4.834   1.952   0.947 -0.1311  0.3275  0.0004
 8077SOL     OW32079   4.340   1.479   3.538 -0.1717  0.1205  0.1179
 8077SOL    HW232080   4.344   1.384   3.542 -0.9813  0.0680 -0.1061
 8077SOL    HW332081   4.421   1.509   3.578 -0.1198 -0.6575  0.5993
 8077SOL    MW432082   4.351   1.471   3.544 -0.1353 -0.1474  0.3062
 8078SOL     OW32083   4.526   0.715   4.244  0.6724 -0.4871  0.3464
 8078SOL    HW232084   4.451   0.692   4.190  0.0312  1.4235  0.3566
 8078SOL    HW332085   4.601   0.673   4.201  0.1099  0.5118 -1.7114
 8078SOL    MW432086   4.526   0.706   4.231  0.3236  0.3521  0.0917
 8079SOL     OW32087   2.786   5.003   1.522 -0.4005  0.7799  0.2462
 8079SOL    HW232088   2.719   5.046   1.469  0.2926  2.7539  0.8378
 8079SOL    HW332089   2.739   4.934   1.569 -1.3133 -0.0295 -1.7684
 8079SOL    MW432090   2.771   5.000   1.521 -0.1795  0.4979  0.4431
 8080SOL     OW32091   0.331   4.801   6.049  0.1719 -0.2078  0.3445
 8080SOL    HW232092   0.309   4.861   5.978  1.4658  0.8081  0.7675
 8080SOL    HW332093   0.423   4.779   6.034 -0.3141 -2.2889  0.0755
 8080SOL    MW432094   0.340   4.806   6.037 -0.4521  0.7320  0.3449
 8081SOL     OW32095   4.544   5.071   3.697  0.7785  0.6063  0.2322
 8081SOL    HW232096   4.512   4.998   3.751  0.1199  0.3392 -0.4989
 8081SOL    HW332097   4.555   5.033   3.610 -4.0697  2.3191 -1.4366
 8081SOL    MW432098   4.542   5.056   3.693  0.2160 -0.2280 -0.0132
 8082SOL     OW32099   3.583   3.921   0.722 -0.4442 -0.3652  0.1104
 8082SOL    HW232100   3.627   4.004   0.703 -0.2781 -0.5748 -0.4226
 8082SOL    HW332101   3.518   3.944   0.789  0.1193  0.0445  0.5276
 8082SOL    MW432102   3.580   3.935   0.728 -0.0797  0.3231 -0.5419
 8083SOL     OW32103   0.326   4.706   3.319  0.6082 -0.4784 -0.4392
 8083SOL    HW232104   0.400   4.657   3.356  1.1497 -0.8333 -1.9157
 8083SOL    HW332105   0.338   4.699   3.224  0.2898  1.9080 -0.7144
 8083SOL    MW432106   0.337   4.698   3.311 -1.0098  0.1830  0.1335
 8084SOL     OW32107   0.175   4.614   5.916  0.7152  0.6416 -1.0330
 8084SOL    HW232108   0.238   4.557   5.872  0.0764  0.4633 -1.7296
 8084SOL    HW332109   0.228   4.687   5.950  1.4514 -0.0671 -0.6343
 8084SOL    MW432110   0.191   4.616   5.915 -0.0073 -0.1928 -0.0682
 8085SOL     OW32111   3.748   2.379   0.586 -0.0130 -0.5393  0.1317
 8085SOL    HW232112   3.771   2.457   0.636 -0.6288 -0.0104 -0.4036
 8085SOL    HW332113   3.677   2.338   0.637 -1.2639  0.4808 -0.7388
 8085SOL    MW432114   3.742   2.384   0.600 -0.1375  0.1867 -0.1047
 8086SOL     OW32115   2.993   1.316   3.370 -0.1211  0.1433  0.0219
 8086SOL    HW232116   3.072   1.311   3.316  0.5498  1.2479  0.8513
 8086SOL    HW332117   2.924   1.342   3.310  0.5758  1.1808 -0.3444
 8086SOL    MW432118   2.994   1.319   3.355  0.1184 -0.1430  0.4222
 8087SOL     OW32119   2.606   2.890   1.331  0.1796  0.6736  0.7480
 8087SOL    HW232120   2.555   2.829   1.277  0.2949  1.8173 -0.7036
 8087SOL    HW332121   2.696   2.857   1.325  0.2706  1.0861 -0.1804
 8087SOL    MW432122   2.611   2.877   1.323  0.2183  0.1673 -0.2435
 8088SOL     OW32123   1.724   5.086   0.091  0.3439  0.4985  0.1640
 8088SOL    HW232124   1.643   5.060   0.135  0.0812 -0.2558 -0.7307
 8088SOL    HW332125   1.762   5.004   0.060  1.7818  0.7855  1.0890
 8088SOL    MW432126   1.718   5.072   0.092 -0.6315 -0.5577 -0.0242
 8089SOL     OW32127   5.320   1.011   3.898 -0.3231  0.0999 -0.7140
 8089SOL    HW232128   5.389   1.019   3.965  0.1693  2.4318 -1.3931
 8089SOL    HW332129   5.259   0.947   3.934 -0.5670  1.8994  2.4408
 8089SOL    MW432130   5.321   1.004   3.912  0.5303  0.3146  0.2685
 8090SOL     OW32131   2.927   2.148   3.483 -0.2458  0.1598 -0.0761
 8090SOL    HW232132   2.861   2.211   3.456 -0.6155 -0.1219  0.1514
 8090SOL    HW332133   2.878   2.081   3.530  0.2649  0.1905  0.5161
 8090SOL    MW432134   2.912   2.147   3.486 -0.2024 -0.2929 -0.2418
 8091SOL     OW32135   2.178   5.871   4.809  0.1653 -0.2851  0.3412
 8091SOL    HW232136   2.126   5.824   4.874  1.6701 -1.3646  0.8127
 8091SOL    HW332137   2.117   5.887   4.736 -1.2842  0.1030  1.5882
 8091SOL    MW432138   2.163   5.867   4.808 -0.0036 -0.0706  0.3693
 8092SOL     OW32139   5.033   4.872   0.413 -0.0907  0.5142  0.0560
 8092SOL    HW232140   5.021   4.815   0.337 -1.7446  1.1982 -0.2417
 8092SOL    HW332141   4.961   4.935   0.407  1.5688  2.5629  0.4487
 8092SOL    MW432142   5.022   4.872   0.402  0.2056  0.0849  0.5380
 8093SOL     OW32143   2.122   0.345   1.337 -0.2786 -0.3030  0.1104
 8093SOL    HW232144   2.078   0.417   1.382  0.6912 -0.6156  1.6353
 8093SOL    HW332145   2.215   0.367   1.342 -0.1444 -0.3131 -1.8665
 8093SOL    MW432146   2.128   0.357   1.344  0.0739  0.1500 -0.0173
 8094SOL     OW32147   4.292   5.160   6.333 -0.2417  0.2855 -0.3530
 8094SOL    HW232148   4.339   5.154   6.417 -1.3583  0.9816  0.3465
 8094SOL    HW332149   4.215   5.105   6.345 -1.0944  1.4209 -0.4235
 8094SOL    MW432150   4.288   5.152   6.346 -0.3205  0.1766  0.9988
 8095SOL     OW32151   0.050   2.658   1.352 -0.3122  0.2931  0.0604
 8095SOL    HW232152  -0.023   2.717   1.333 -0.4880 -0.6914 -2.7729
 8095SOL    HW332153   0.012   2.570   1.346  1.2143 -0.3124 -2.8120
 8095SOL    MW432154   0.036   2.654   1.348  0.2323  0.6711 -0.0846
 8096SOL     OW32155   5.209   4.199   2.216 -0.0542  0.7067  0.4416
 8096SOL    HW232156   5.214   4.136   2.144  0.0875  0.9651  0.2216
 8096SOL    HW332157   5.181   4.281   2.174  1.0185  1.1208  0.5024
 8096SOL    MW432158   5.206   4.202   2.201  0.1472  0.3837  0.3501
 8097SOL     OW32159   4.864   2.780   4.668 -0.9200 -0.2357 -0.7027
 8097SOL    HW232160   4.923   2.706   4.682  0.1877  0.9727  1.6843
 8097SOL    HW332161   4.781   2.754   4.707 -0.2305  0.0966  1.0576
 8097SOL    MW432162   4.861   2.767   4.675 -0.0740 -0.1444 -0.2305
 8098SOL     OW32163   4.562   2.652   3.555  0.3730 -0.5103  0.1953
 8098SOL    HW232164   4.532   2.616   3.471 -1.3159  1.4107 -0.1069
 8098SOL    HW332165   4.490   2.635   3.615  0.3592  0.6255  0.5122
 8098SOL    MW432166   4.549   2.645   3.552 -0.2897  0.7205 -0.0775
 8099SOL     OW32167   2.392   3.492   2.802  0.0136  0.3080 -0.1793
 8099SOL    HW232168   2.313   3.547   2.803  0.4876  1.0372 -1.2363
 8099SOL    HW332169   2.464   3.553   2.789  0.7864 -0.3377  0.9182
 8099SOL    MW432170   2.391   3.507   2.800 -0.7845 -0.2761  0.0731
 8100SOL     OW32171   1.173   2.824   5.632  0.4229 -0.5343  0.4347
 8100SOL    HW232172   1.167   2.869   5.717 -0.4360 -0.4961  0.3611
 8100SOL    HW332173   1.083   2.810   5.606  0.6784 -0.4708 -0.5232
 8100SOL    MW432174   1.161   2.828   5.640  0.5775 -0.0788  0.1105
 8101SOL     OW32175   2.636   3.119   2.234 -0.4101 -0.0691 -0.4125
 8101SOL    HW232176   2.581   3.197   2.225 -0.1625  0.4397  1.9182
 8101SOL    HW332177   2.641   3.103   2.328  0.4004 -2.3130 -0.7670
 8101SOL    MW432178   2.630   3.127   2.245 -0.5047  0.5281  0.4413
 8102SOL     OW32179   4.885   3.822   3.521 -0.5006  0.1617  1.0247
 8102SOL    HW232180   4.884   3.731   3.491  0.5882  0.7681 -1.0384
 8102SOL    HW332181   4.796   3.853   3.504 -0.6257 -0.2631  0.8718
 8102SOL    MW432182   4.873   3.814   3.515  0.1666 -0.0531  0.4125
 8103SOL     OW32183   1.059   0.244   5.519 -0.0591 -0.1157 -0.0886
 8103SOL    HW232184   1.142   0.199   5.504  0.3908  1.0308 -1.1732
 8103SOL    HW332185   0.992   0.177   5.500  0.5828 -0.8186  0.0580
 8103SOL    MW432186   1.061   0.229   5.515 -0.1303  0.0108 -0.3898
 8104SOL     OW32187   0.543   4.529   4.876  0.0876 -0.2464  0.1279
 8104SOL    HW232188   0.498   4.448   4.901 -0.3119  0.4498  1.8708
 8104SOL    HW332189   0.636   4.506   4.875 -0.0478 -0.8239  0.2623
 8104SOL    MW432190   0.549   4.515   4.879  0.3092 -0.3216 -0.1324
 8105SOL     OW32191   5.555   2.855   3.711  0.6112 -0.2827 -0.0068
 8105SOL    HW232192   5.533   2.787   3.647  0.6647 -1.9496  1.6546
 8105SOL    HW332193   5.581   2.930   3.658 -1.4353 -0.8367 -1.9434
 8105SOL    MW432194   5.556   2.856   3.695  0.2570  0.0240  0.5888
 8106SOL     OW32195   2.735   2.043   1.769 -0.2416 -0.1976  0.7086
 8106SOL    HW232196   2.817   2.090   1.781  0.4592 -1.4228  0.9069
 8106SOL    HW332197   2.669   2.098   1.812  0.6082  0.3816  1.3072
 8106SOL    MW432198   2.737   2.057   1.776  0.1792 -0.2578  0.3682
 8107SOL     OW32199   6.374   5.578   5.832 -0.2700  0.3814 -0.1194
 8107SOL    HW232200   6.302   5.609   5.887 -0.3720  0.8596 -0.5096
 8107SOL    HW332201   6.452   5.614   5.873 -0.1179 -1.1343  0.9997
 8107SOL    MW432202   6.375   5.587   5.844  0.1863  0.3664  0.2158
 8108SOL     OW32203   5.128   1.601   2.393 -0.1726 -0.5988  0.0605
 8108SOL    HW232204   5.201   1.560   2.347  0.4601  1.4895 -0.9135
 8108SOL    HW332205   5.051   1.575   2.343  0.1792 -0.8625 -0.3537
 8108SOL    MW432206   5.128   1.592   2.380  0.2220  0.3281 -0.0555
 8109SOL     OW32207   0.016   5.414   1.611 -0.1253  0.1190  0.3819
 8109SOL    HW232208   0.106   5.446   1.615  0.1116 -0.4006 -0.5339
 8109SOL    HW332209  -0.038   5.493   1.622  0.4467  0.6035 -0.1702
 8109SOL    MW432210   0.020   5.429   1.613  0.7363 -0.6839  0.2629
 8110SOL     OW32211   3.093   0.779   2.334  0.2315  0.4573  0.0334
 8110SOL    HW232212   3.156   0.755   2.266  0.8627  1.1651  0.3439
 8110SOL    HW332213   3.145   0.781   2.415 -0.8168 -1.9078  0.8343
 8110SOL    MW432214   3.108   0.776   2.336 -0.1106 -0.1255  0.3135
 8111SOL     OW32215   4.494   4.686   5.861 -0.4682  0.4427  0.9126
 8111SOL    HW232216   4.471   4.759   5.805 -1.9584 -1.9123 -1.8396
 8111SOL    HW332217   4.588   4.675   5.851 -0.8233 -0.6919 -2.4234
 8111SOL    MW432218   4.503   4.694   5.852 -0.1076 -0.0746 -0.2393
 8112SOL     OW32219   4.141   5.186   5.146  0.5393  0.4576  0.0929
 8112SOL    HW232220   4.089   5.235   5.210 -0.6231 -2.5406  1.6337
 8112SOL    HW332221   4.231   5.210   5.165  0.0562  1.6372  1.0318
 8112SOL    MW432222   4.146   5.196   5.157  0.3038  0.0826  0.3563
 8113SOL     OW32223   3.722   5.489   3.324 -0.8326 -0.3310 -0.1155
 8113SOL    HW232224   3.792   5.444   3.371 -0.1430 -0.5119 -1.2646
 8113SOL    HW332225   3.752   5.580   3.316 -0.6844 -0.4186 -0.6487
 8113SOL    MW432226   3.735   5.495   3.329 -0.5038  0.0602  0.0373
 8114SOL     OW32227   1.823   6.163   5.518  0.1127 -0.5505  0.1874
 8114SOL    HW232228   1.802   6.133   5.430 -0.3760 -0.8592  0.4028
 8114SOL    HW332229   1.764   6.113   5.575  0.6297 -0.5726  0.7144
 8114SOL    MW432230   1.813   6.153   5.514  0.3201  0.5948 -0.4951
 8115SOL     OW32231   5.370   5.896   4.519  0.3136  0.3924  0.2086
 8115SOL    HW232232   5.377   5.941   4.434  2.0502  0.2923  0.2659
 8115SOL    HW332233   5.418   5.814   4.507 -1.4491 -0.7532  0.6060
 8115SOL    MW432234   5.377   5.891   4.506 -0.7860  0.1104 -0.3452
 8116SOL     OW32235   4.289   5.949   3.324  0.1023  0.3581  0.0861
 8116SOL    HW232236   4.293   5.996   3.407 -0.3111 -0.1147  0.3814
 8116SOL    HW332237   4.372   5.969   3.280  0.0131  1.1893  0.2905
 8116SOL    MW432238   4.301   5.958   3.329 -0.2984 -0.2451  0.7249
 8117SOL     OW32239   4.071   2.278   3.668  0.4470 -0.3696  0.3789
 8117SOL    HW232240   4.048   2.259   3.577  0.7919 -1.3936  0.4862
 8117SOL    HW332241   3.987   2.290   3.712  0.3011  1.3205 -0.2879
 8117SOL    MW432242   4.057   2.277   3.661 -0.5500  0.0645 -0.1925
 8118SOL     OW32243   5.087   3.441   1.164 -0.0052 -0.3079  0.1902
 8118SOL    HW232244   5.040   3.495   1.101  0.8556  0.3969  0.1325
 8118SOL    HW332245   5.174   3.429   1.126  1.0280  1.3148  1.8188
 8118SOL    MW432246   5.092   3.447   1.151 -0.9808 -0.5757  0.1215
 8119SOL     OW32247   6.198   5.120   2.210  0.4067 -0.2878 -0.4063
 8119SOL    HW232248   6.192   5.035   2.165 -0.4068 -0.9642  0.9357
 8119SOL    HW332249   6.280   5.115   2.260  0.6887 -0.0121 -0.8310
 8119SOL    MW432250   6.208   5.108   2.210 -0.4018 -0.5029 -0.1138
 8120SOL     OW32251   5.670   2.912   1.249  0.5660 -0.1564 -0.3373
 8120SOL    HW232252   5.652   2.825   1.286  0.0500  0.3998  0.7721
 8120SOL    HW332253   5.765   2.919   1.250  0.5627  0.1241  1.6412
 8120SOL    MW432254   5.680   2.901   1.254 -0.2692  0.3308  0.1417
 8121SOL     OW32255   1.690   4.077   0.253 -0.1124  0.3730  0.6704
 8121SOL    HW232256   1.599   4.071   0.282 -0.2550  0.4687  0.2504
 8121SOL    HW332257   1.731   3.997   0.286 -0.5076  0.0115  0.3027
 8121SOL    MW432258   1.684   4.066   0.262  1.3246  0.2926 -0.1856
 8122SOL     OW32259   2.756   5.379   3.902 -0.0835  0.0861  0.2730
 8122SOL    HW232260   2.783   5.289   3.922 -1.8997 -0.5641 -0.0349
 8122SOL    HW332261   2.751   5.421   3.988 -1.2457 -0.7253  0.6240
 8122SOL    MW432262   2.759   5.372   3.916 -0.4568 -0.0172  0.4960
 8123SOL     OW32263   4.088   0.371   6.252  0.1001  0.4010  0.5753
 8123SOL    HW232264   4.104   0.297   6.310  1.6219 -0.9158 -1.3910
 8123SOL    HW332265   3.995   0.365   6.230 -1.0346  2.0391  4.1587
 8123SOL    MW432266   4.078   0.360   6.257 -0.5284 -0.6705 -0.4761
 8124SOL     OW32267   4.387   1.025   5.276 -0.2309  0.3955  0.0226
 8124SOL    HW232268   4.293   1.041   5.264 -0.2206  0.6970  0.3172
 8124SOL    HW332269   4.395   0.930   5.280 -0.4292  0.3430 -0.7493
 8124SOL    MW432270   4.375   1.015   5.275  0.4499 -0.7713 -0.7115
 8125SOL     OW32271   0.646   1.706   5.801  0.4086 -0.2328  0.0825
 8125SOL    HW232272   0.685   1.785   5.765  0.3782 -1.0220 -1.8308
 8125SOL    HW332273   0.575   1.737   5.857  1.9402  1.1321  1.3724
 8125SOL    MW432274   0.642   1.720   5.803  0.1780  0.1722  1.0054
 8126SOL     OW32275   2.337   0.984   5.761  0.6132 -0.2089  0.0111
 8126SOL    HW232276   2.297   0.990   5.674  0.4993 -0.8020  0.0190
 8126SOL    HW332277   2.320   1.070   5.801  0.1462 -0.1364 -0.3307
 8126SOL    MW432278   2.329   0.997   5.755  0.1434  0.4111  0.4646
 8127SOL     OW32279   5.944   1.435   4.787 -0.2470 -0.1115 -0.4741
 8127SOL    HW232280   5.874   1.431   4.722 -0.7446  0.7422 -0.0019
 8127SOL    HW332281   6.009   1.493   4.748 -0.4199  0.1798 -0.3289
 8127SOL    MW432282   5.943   1.442   4.773 -0.3616  0.0575 -0.5753
 8128SOL     OW32283   0.243   5.580   5.533  0.4019 -0.3393 -0.5532
 8128SOL    HW232284   0.247   5.674   5.546 -0.9809 -0.3751  0.3497
 8128SOL    HW332285   0.262   5.542   5.619  0.2630 -0.8622 -0.7464
 8128SOL    MW432286   0.246   5.587   5.546 -0.0600 -0.1225 -0.3564
 8129SOL     OW32287   3.686   0.942   0.830 -0.0054 -0.3592  0.6233
 8129SOL    HW232288   3.609   0.972   0.783  0.4376  0.2220  0.2651
 8129SOL    HW332289   3.752   1.009   0.815  0.4693 -0.6838  1.2052
 8129SOL    MW432290   3.685   0.955   0.822  0.4222 -0.4724  0.3870
 8130SOL     OW32291   2.835   0.256   0.267  0.0370  0.0338 -0.2811
 8130SOL    HW232292   2.740   0.247   0.278  0.2833 -0.6747  1.8176
 8130SOL    HW332293   2.871   0.173   0.298  1.3903  0.6220 -0.1825
 8130SOL    MW432294   2.827   0.244   0.273 -0.7484 -0.5615 -0.5063
 8131SOL     OW32295   5.327   0.385   5.693  0.0330 -0.0874  0.1848
 8131SOL    HW232296   5.316   0.366   5.600  0.2973 -1.1561  0.3531
 8131SOL    HW332297   5.292   0.473   5.704 -1.6809 -0.6172 -0.6018
 8131SOL    MW432298   5.321   0.394   5.682 -0.5545 -0.3273 -0.0331
 8132SOL     OW32299   3.957   0.131   1.578  0.4387 -0.3871 -0.4174
 8132SOL    HW232300   3.940   0.042   1.547 -0.2743 -0.3201 -0.2531
 8132SOL    HW332301   4.052   0.138   1.581  0.5232 -0.7283 -1.6148
 8132SOL    MW432302   3.967   0.120   1.574 -0.1115  0.5654 -0.7014
 8133SOL     OW32303   4.652   3.365   3.364 -0.1003  0.3722  0.1219
 8133SOL    HW232304   4.704   3.434   3.406  1.4753  0.4169 -1.7341
 8133SOL    HW332305   4.695   3.352   3.279 -1.9740 -1.0404 -0.6655
 8133SOL    MW432306   4.665   3.373   3.358  0.0156  1.4091 -0.3860
 8134SOL     OW32307   5.285   1.940   0.212  0.9829  0.8393  0.3056
 8134SOL    HW232308   5.327   1.859   0.239 -0.5316 -0.2592 -0.4789
 8134SOL    HW332309   5.223   1.959   0.283 -1.4399 -0.8721 -1.1970
 8134SOL    MW432310   5.282   1.932   0.225 -0.5578  0.2710  0.2044
 8135SOL     OW32311   2.506   2.719   6.359 -0.0531 -0.4770  0.0656
 8135SOL    HW232312   2.577   2.762   6.311 -0.3589 -0.8870 -0.7648
 8135SOL    HW332313   2.436   2.785   6.361 -0.5744 -0.9396 -1.3311
 8135SOL    MW432314   2.506   2.734   6.353  0.5431  0.3294 -0.0354
 8136SOL     OW32315   2.320   3.797   0.360 -0.1553 -0.4768 -0.4988
 8136SOL    HW232316   2.371   3.728   0.401 -0.5296 -0.4953 -0.0575
 8136SOL    HW332317   2.270   3.753   0.291  0.1221 -0.5244 -0.6726
 8136SOL    MW432318   2.321   3.782   0.356  0.4919 -0.0870 -0.1731
 8137SOL     OW32319   5.881   2.726   1.104 -0.2642 -0.2807  1.0055
 8137SOL    HW232320   5.940   2.799   1.117  0.8417 -1.0578  0.5013
 8137SOL    HW332321   5.837   2.745   1.021  1.2520 -0.9563 -0.0073
 8137SOL    MW432322   5.883   2.738   1.095  0.2687 -0.2040  0.0247
 8138SOL     OW32323   6.286   4.430   5.208  0.2336 -0.1215 -0.3069
 8138SOL    HW232324   6.276   4.444   5.302 -0.6119  3.1474 -0.7834
 8138SOL    HW332325   6.204   4.388   5.181 -0.1746  0.3609  0.1773
 8138SOL    MW432326   6.273   4.426   5.217  0.1397 -0.1661 -0.4109
 8139SOL     OW32327   2.919   4.191   2.066 -0.6383  0.0944 -0.2056
 8139SOL    HW232328   2.895   4.100   2.083 -0.7953 -0.0012 -0.8986
 8139SOL    HW332329   2.844   4.242   2.098  0.0388  0.1005  1.4916
 8139SOL    MW432330   2.906   4.186   2.073 -0.2083  0.1310 -0.5481
 8140SOL     OW32331   0.624   4.771   6.026 -0.0678  0.0010  0.5566
 8140SOL    HW232332   0.634   4.729   6.112  0.6636  0.1870  0.5746
 8140SOL    HW332333   0.637   4.700   5.963  2.4476  0.3498  0.5585
 8140SOL    MW432334   0.627   4.756   6.029 -0.0815 -0.6503 -0.1718
 8141SOL     OW32335   5.946   4.806   3.727  0.4079  0.0809  0.0942
 8141SOL    HW232336   5.894   4.883   3.706  0.5846  0.0755 -0.3687
 8141SOL    HW332337   5.885   4.733   3.718  1.1076 -0.2677 -3.3418
 8141SOL    MW432338   5.931   4.806   3.723 -0.0244 -0.7718 -0.2051
 8142SOL     OW32339   4.443   4.363   2.227  0.5076  0.2494  0.7599
 8142SOL    HW232340   4.470   4.448   2.261 -0.1477  0.7646  0.0585
 8142SOL    HW332341   4.367   4.339   2.279  0.0206  0.6347  0.2462
 8142SOL    MW432342   4.436   4.371   2.238  0.3943 -0.0088  0.0511
 8143SOL     OW32343   5.760   4.971   6.326  0.4388  0.3585 -0.0674
 8143SOL    HW232344   5.684   5.021   6.294 -0.3624 -1.1946 -0.6910
 8143SOL    HW332345   5.745   4.962   6.420 -0.4107 -0.3515 -0.2640
 8143SOL    MW432346   5.748   4.976   6.334  0.6034 -0.4732 -0.2408
 8144SOL     OW32347   0.270   3.829   4.183  0.1485 -0.0597 -0.1705
 8144SOL    HW232348   0.282   3.758   4.246 -0.4931  1.2867  1.5874
 8144SOL    HW332349   0.336   3.894   4.209 -1.3582  1.3202  0.3743
 8144SOL    MW432350   0.280   3.828   4.195 -0.5860 -0.1737  0.0515
 8145SOL     OW32351   0.133   3.974   1.621 -0.3856  0.2814 -0.0900
 8145SOL    HW232352   0.176   4.060   1.626  1.7708 -0.6980 -0.5291
 8145SOL    HW332353   0.112   3.952   1.712  0.5612  0.5834  0.2160
 8145SOL    MW432354   0.136   3.982   1.634  0.1773  0.1266 -0.3823
 8146SOL     OW32355   3.493   1.808   4.628  0.7640  0.1303 -0.0975
 8146SOL    HW232356   3.508   1.755   4.706 -0.2934  1.1405  0.8407
 8146SOL    HW332357   3.574   1.802   4.578  0.8817 -1.8255  0.2787
 8146SOL    MW432358   3.505   1.800   4.632  0.6213 -0.5867 -0.4265
 8147SOL     OW32359   4.334   4.967   2.158 -0.2523  0.1946  0.0843
 8147SOL    HW232360   4.430   4.960   2.166  0.0905  0.8788 -2.4751
 8147SOL    HW332361   4.300   4.910   2.226  1.9645  0.5607  1.6114
 8147SOL    MW432362   4.342   4.959   2.168  0.1152 -0.0015 -0.0838
 8148SOL     OW32363   4.073   1.753   3.400  0.3837  0.1448  0.3536
 8148SOL    HW232364   4.115   1.756   3.486 -1.9233  0.9339  1.5383
 8148SOL    HW332365   4.079   1.844   3.368 -0.9299  0.4248  0.8411
 8148SOL    MW432366   4.080   1.766   3.407 -0.0671 -0.8191 -0.0179
 8149SOL     OW32367   5.376   4.513   3.316  0.3774 -0.1264 -0.2032
 8149SOL    HW232368   5.360   4.419   3.330 -2.8585  0.6231  2.4891
 8149SOL    HW332369   5.292   4.548   3.287  0.5024  2.3934  2.0893
 8149SOL    MW432370   5.363   4.505   3.314  0.6449 -0.9875  0.2174
 8150SOL     OW32371   4.642   2.413   4.626  0.1626 -0.1386 -0.6220
 8150SOL    HW232372   4.627   2.492   4.676 -1.4824 -0.1667 -1.0122
 8150SOL    HW332373   4.737   2.411   4.611  0.3094  1.3570  0.0005
 8150SOL    MW432374   4.653   2.423   4.630 -0.8454  0.7187  0.0682
 8151SOL     OW32375   0.187   2.220   2.558 -0.0160 -0.3278 -0.5159
 8151SOL    HW232376   0.232   2.300   2.532 -0.0736 -0.1849 -0.1708
 8151SOL    HW332377   0.249   2.150   2.538  0.9659 -0.0368  1.3048
 8151SOL    MW432378   0.201   2.221   2.552 -0.4714  0.1875  0.0674
 8152SOL     OW32379   1.841   3.973   2.775  0.1388  0.5857  0.1958
 8152SOL    HW232380   1.794   3.912   2.832  1.5698  0.6459  1.4869
 8152SOL    HW332381   1.805   4.059   2.797 -2.1056  0.2750 -1.8480
 8152SOL    MW432382   1.830   3.976   2.785 -0.4577 -0.3274 -0.0685
 8153SOL     OW32383   2.034   0.405   4.297  0.1679 -0.2298 -0.4061
 8153SOL    HW232384   2.107   0.430   4.354  0.0910 -0.1704 -0.3323
 8153SOL    HW332385   2.026   0.310   4.308  0.6719 -0.3366 -0.9363
 8153SOL    MW432386   2.042   0.396   4.306 -0.2231  0.2788  0.1837
 8154SOL     OW32387   0.654   2.224   3.644  0.5368 -0.1016 -0.3962
 8154SOL    HW232388   0.580   2.218   3.704 -0.1820 -0.3746 -1.2759
 8154SOL    HW332389   0.704   2.144   3.658 -0.9057 -1.3055 -1.7532
 8154SOL    MW432390   0.651   2.213   3.653  0.1175  0.1662  0.0442
 8155SOL     OW32391   5.555   4.214   3.477  0.4835 -0.4039  0.3445
 8155SOL    HW232392   5.624   4.274   3.449 -0.3879 -0.0303 -1.1218
 8155SOL    HW332393   5.598   4.128   3.476  0.9888 -0.1610 -0.3896
 8155SOL    MW432394   5.570   4.210   3.473  0.0452  0.8703  0.2448
 8156SOL     OW32395   1.346   5.688   2.915  1.0614  0.5155  0.5496
 8156SOL    HW232396   1.397   5.715   2.839  0.7394 -2.3457 -0.8133
 8156SOL    HW332397   1.357   5.593   2.918 -2.4022  0.0353  1.4959
 8156SOL    MW432398   1.354   5.679   2.905 -0.6417  0.0199 -0.0630
 8157SOL     OW32399   0.172   5.842   6.128  0.5825 -0.2108 -0.1613
 8157SOL    HW232400   0.217   5.915   6.170  0.6811  0.4329 -1.3391
 8157SOL    HW332401   0.088   5.879   6.100 -0.7647 -1.4061  2.0462
 8157SOL    MW432402   0.167   5.857   6.130 -0.6440 -0.7351 -0.4060
 8158SOL     OW32403   5.150   5.379   1.947  0.1918 -0.3292 -0.0649
 8158SOL    HW232404   5.238   5.411   1.925  1.3213 -1.6744  2.0406
 8158SOL    HW332405   5.161   5.284   1.954 -0.9948 -0.3731  1.9077
 8158SOL    MW432406   5.163   5.371   1.945  0.2824  0.2731  0.0547
 8159SOL     OW32407   0.264   1.561   3.373 -0.0605 -0.4002  0.0516
 8159SOL    HW232408   0.301   1.498   3.435 -1.4139 -0.7395  0.5517
 8159SOL    HW332409   0.336   1.581   3.313  1.2391 -0.1848  1.6224
 8159SOL    MW432410   0.279   1.555   3.373 -0.0005 -0.2447 -0.0720
 8160SOL     OW32411   0.697   3.522   5.116 -0.1749 -0.4818 -0.6425
 8160SOL    HW232412   0.734   3.514   5.203 -1.4460 -0.3877 -0.0749
 8160SOL    HW332413   0.670   3.432   5.093  0.0234 -0.4821 -0.8773
 8160SOL    MW432414   0.698   3.509   5.124  0.2043 -0.0403  0.1322
 8161SOL     OW32415   3.180   0.151   2.456 -0.3289  0.0171  0.2089
 8161SOL    HW232416   3.214   0.122   2.372 -1.4321  0.6912 -0.5042
 8161SOL    HW332417   3.255   0.188   2.502 -0.1268  1.8720 -1.4863
 8161SOL    MW432418   3.194   0.152   2.451  0.2315  0.3241 -0.2838
 8162SOL     OW32419   1.406   0.227   4.475  0.0102 -0.4692 -0.0886
 8162SOL    HW232420   1.457   0.297   4.516  0.0386 -1.0143  0.8518
 8162SOL    HW332421   1.328   0.270   4.440  0.6675  0.2303 -0.7075
 8162SOL    MW432422   1.402   0.242   4.476  0.0303  0.1618  0.3423
 8163SOL     OW32423   2.915   0.952   6.289  0.0729  0.2067  0.2963
 8163SOL    HW232424   2.854   0.908   6.348 -0.4831  0.6388  0.0459
 8163SOL    HW332425   2.899   0.912   6.203  0.7912 -0.3314  0.3997
 8163SOL    MW432426   2.905   0.941   6.285 -0.3582 -0.3768 -0.2682
 8164SOL     OW32427   5.547   4.134   5.650 -0.0589  0.0010  0.4446
 8164SOL    HW232428   5.508   4.189   5.582  2.1568  0.5909 -0.4421
 8164SOL    HW332429   5.642   4.142   5.635  0.4350 -1.0164  2.7134
 8164SOL    MW432430   5.555   4.142   5.639 -0.2110  0.1712  0.4553
 8165SOL     OW32431   5.129   1.577   1.170 -0.1333  0.4650 -0.1108
 8165SOL    HW232432   5.131   1.606   1.261  0.9532 -1.0498  0.3850
 8165SOL    HW332433   5.215   1.539   1.155 -0.4947  0.1786 -1.6031
 8165SOL    MW432434   5.140   1.576   1.180  0.2738  0.7602  0.3074
 8166SOL     OW32435   2.653   4.766   0.447 -0.3508 -0.4037 -0.1584
 8166SOL    HW232436   2.744   4.741   0.431 -0.0310  0.0359  0.8732
 8166SOL    HW332437   2.619   4.696   0.503 -0.7436 -0.7301 -0.8043
 8166SOL    MW432438   2.661   4.753   0.452 -0.4217  0.6053  0.1859
 8167SOL     OW32439   4.677   5.336   1.873  0.2499  0.1885 -0.3686
 8167SOL    HW232440   4.682   5.403   1.805  0.6681 -0.1721 -0.7001
 8167SOL    HW332441   4.614   5.371   1.937  1.4655  1.5340  0.1736
 8167SOL    MW432442   4.670   5.350   1.873 -0.0836 -0.0898  0.5612
 8168SOL     OW32443   1.894   0.840   4.769 -0.7028  0.0968  0.3569
 8168SOL    HW232444   1.822   0.871   4.824 -0.7562  0.8439 -0.1080
 8168SOL    HW332445   1.923   0.919   4.722  0.4902 -0.1670  0.6174
 8168SOL    MW432446   1.889   0.855   4.770  0.3986 -0.1504 -0.2921
 8169SOL     OW32447   1.228   3.291   3.007  0.2538 -0.4393 -0.1745
 8169SOL    HW232448   1.194   3.232   2.940 -1.5349  2.7822 -2.3423
 8169SOL    HW332449   1.156   3.300   3.069 -0.0978  0.6142 -0.7146
 8169SOL    MW432450   1.214   3.284   3.006  0.4052 -0.9544 -0.0973
 8170SOL     OW32451   2.639   0.546   0.739 -0.4929  0.3320 -0.2917
 8170SOL    HW232452   2.598   0.506   0.662 -1.5717 -1.1547  0.9679
 8170SOL    HW332453   2.568   0.596   0.780 -0.3867 -0.1775  0.5436
 8170SOL    MW432454   2.624   0.547   0.734  0.1836  0.0173 -0.0604
 8171SOL     OW32455   3.483   5.011   4.681 -0.0372  0.3801 -0.2495
 8171SOL    HW232456   3.497   5.072   4.609  1.5574 -1.9234 -2.0597
 8171SOL    HW332457   3.482   5.066   4.760  0.6661  2.7663 -1.8007
 8171SOL    MW432458   3.485   5.026   4.682  0.1048  0.2077 -0.2645
 8172SOL     OW32459   0.989   6.147   5.556 -0.1517 -0.1245 -0.3777
 8172SOL    HW232460   1.002   6.067   5.606 -0.7740  0.9530  1.6397
 8172SOL    HW332461   1.077   6.185   5.550 -0.2557  0.5794  1.5369
 8172SOL    MW432462   1.002   6.142   5.562 -0.1648  0.7367  0.0890
 8173SOL     OW32463   0.267   2.342   4.620  0.8754 -0.1590  0.0721
 8173SOL    HW232464   0.353   2.302   4.612  0.4675 -0.9986 -0.1773
 8173SOL    HW332465   0.227   2.330   4.533 -0.0303 -1.0310  0.5961
 8173SOL    MW432466   0.273   2.335   4.607 -0.0216 -0.5837  0.4901
 8174SOL     OW32467   6.050   0.762   4.459 -0.4698 -0.3946  0.6444
 8174SOL    HW232468   5.992   0.715   4.399  1.1624 -1.5286 -0.1221
 8174SOL    HW332469   6.086   0.694   4.516  2.2552 -0.2553 -0.7603
 8174SOL    MW432470   6.047   0.747   4.458 -0.3591 -1.0595 -0.4571
 8175SOL     OW32471   2.898   0.609   1.104  0.5080  0.7923  0.1294
 8175SOL    HW232472   2.840   0.532   1.106  2.3804 -0.7099 -0.1653
 8175SOL    HW332473   2.846   0.677   1.063 -0.7545 -0.7681 -0.9892
 8175SOL    MW432474   2.883   0.608   1.099  0.0922 -0.0392 -0.5232
 8176SOL     OW32475   1.076   3.789   4.694  0.0403 -0.3271  0.5495
 8176SOL    HW232476   1.154   3.820   4.739  1.0495 -0.8050 -0.8271
 8176SOL    HW332477   1.052   3.860   4.635  3.3950 -2.4188 -3.9489
 8176SOL    MW432478   1.083   3.802   4.692 -0.0343 -0.2365 -0.1379
 8177SOL     OW32479   0.591   3.038   1.273  0.5245  0.0193 -0.0927
 8177SOL    HW232480   0.505   2.995   1.275  0.7015 -0.5964 -2.5426
 8177SOL    HW332481   0.642   2.991   1.340 -0.6615 -0.4644  0.5056
 8177SOL    MW432482   0.586   3.026   1.282 -0.3040  0.2359 -0.0651
 8178SOL     OW32483   3.423   0.479   3.815 -0.2422 -0.5182 -0.5438
 8178SOL    HW232484   3.345   0.504   3.766 -0.3837 -2.4918 -1.4163
 8178SOL    HW332485   3.398   0.398   3.861  0.0344  0.9729  2.5100
 8178SOL    MW432486   3.409   0.472   3.815  0.3128  0.3208  0.2540
 8179SOL     OW32487   5.608   6.290   0.794 -0.1253  0.5752  0.6976
 8179SOL    HW232488   5.605   6.355   0.724  0.5144  0.2245  0.3290
 8179SOL    HW332489   5.697   6.256   0.791  0.4988  1.8189  2.8810
 8179SOL    MW432490   5.619   6.294   0.784 -0.1240 -0.4249  0.9051
 8180SOL     OW32491   1.705   0.694   0.267  0.0485  1.1915  0.3365
 8180SOL    HW232492   1.767   0.748   0.316 -0.6099  1.9268  0.3895
 8180SOL    HW332493   1.643   0.663   0.333 -0.6276  1.8799  0.0398
 8180SOL    MW432494   1.705   0.697   0.282  0.0058  0.3054 -0.2508
 8181SOL     OW32495   6.262   3.926   2.946 -0.2286  0.0396  0.1386
 8181SOL    HW232496   6.227   3.899   2.861  0.7120 -0.4414 -0.1191
 8181SOL    HW332497   6.203   3.886   3.010 -0.7743  0.1586 -0.2871
 8181SOL    MW432498   6.249   3.917   2.943  0.3525  0.0925 -0.3561
 8182SOL     OW32499   5.289   3.203   2.296  0.7534  0.4001 -0.6541
 8182SOL    HW232500   5.317   3.226   2.385 -0.3978  0.1003 -0.1907
 8182SOL    HW332501   5.370   3.192   2.247  1.5165 -1.9610  0.9868
 8182SOL    MW432502   5.303   3.205   2.301 -0.2822 -0.1916 -0.0124
 8183SOL     OW32503   3.380   1.873   1.892 -0.7628  0.0470 -0.0538
 8183SOL    HW232504   3.396   1.830   1.808  2.3581  0.0344  0.4523
 8183SOL    HW332505   3.383   1.802   1.956 -1.0882  0.3352  0.2898
 8183SOL    MW432506   3.382   1.858   1.889  0.0347  0.0687  0.4256
 8184SOL     OW32507   3.894   5.906   4.100  0.6652 -0.5374 -0.0479
 8184SOL    HW232508   3.957   5.936   4.035  0.2505  2.2953  0.7155
 8184SOL    HW332509   3.810   5.904   4.053  0.4675  0.9125  0.2137
 8184SOL    MW432510   3.891   5.909   4.085 -0.2203  0.0520  0.4413
 8185SOL     OW32511   1.703   2.813   4.569  0.4557  0.2659  0.1455
 8185SOL    HW232512   1.625   2.864   4.590  0.0467 -0.5832  0.7582
 8185SOL    HW332513   1.730   2.775   4.653 -0.3393 -2.0136 -0.5440
 8185SOL    MW432514   1.696   2.815   4.583 -0.4079 -0.1351 -0.4696
 8186SOL     OW32515   0.785   5.720   3.206 -0.2614 -0.1880 -0.2328
 8186SOL    HW232516   0.797   5.814   3.222 -0.8274  0.2179 -1.9917
 8186SOL    HW332517   0.867   5.680   3.234 -0.1639  0.7742  0.9060
 8186SOL    MW432518   0.797   5.727   3.212  0.0518 -0.7651  0.0031
 8187SOL     OW32519   4.643   4.032   5.219 -0.7086 -0.3949  0.0511
 8187SOL    HW232520   4.648   3.988   5.305  0.9757 -1.1676 -0.3943
 8187SOL    HW332521   4.727   4.076   5.210 -1.3455  0.7056 -0.7057
 8187SOL    MW432522   4.654   4.032   5.229  0.3865  0.6823 -0.1678
 8188SOL     OW32523   5.893   4.130   0.332  0.2292 -0.3060 -0.3600
 8188SOL    HW232524   5.873   4.103   0.242  0.6683 -2.4553  0.1462
 8188SOL    HW332525   5.928   4.219   0.322 -3.5926  1.2321 -1.8443
 8188SOL    MW432526   5.895   4.139   0.319 -0.3965 -0.2614 -0.2980
 8189SOL     OW32527   4.704   1.753   1.565 -0.3496  0.3786 -0.0391
 8189SOL    HW232528   4.762   1.816   1.608 -1.4739  1.0957  0.4603
 8189SOL    HW332529   4.759   1.713   1.498  0.8032  0.8364  0.5985
 8189SOL    MW432530   4.719   1.756   1.562 -0.0760 -0.2818 -0.0807
 8190SOL     OW32531   3.462   5.578   0.478  0.3198  0.3083  0.4258
 8190SOL    HW232532   3.442   5.660   0.525 -0.8268  0.3315 -0.0693
 8190SOL    HW332533   3.396   5.573   0.410  0.8850 -0.6355 -0.0706
 8190SOL    MW432534   3.451   5.588   0.476  0.0651 -0.4046 -0.1174
 8191SOL     OW32535   2.630   3.664   0.024 -0.0313 -0.9310  0.0625
 8191SOL    HW232536   2.598   3.614  -0.051  1.1581  0.7194 -1.6476
 8191SOL    HW332537   2.586   3.749   0.016  2.9645  0.6311 -1.1153
 8191SOL    MW432538   2.620   3.669   0.013 -0.2092 -0.0257 -0.2449
 8192SOL     OW32539   5.234   3.643   5.100  0.2040 -0.6123  0.0768
 8192SOL    HW232540   5.281   3.590   5.036 -0.4401 -1.2083  0.0819
 8192SOL    HW332541   5.148   3.602   5.106  0.4696 -0.9892  1.8209
 8192SOL    MW432542   5.229   3.630   5.092 -1.0694 -0.2661  0.0230
 8193SOL     OW32543   5.453   3.511   4.268  0.2375  0.5037  0.2995
 8193SOL    HW232544   5.474   3.599   4.239 -1.4764  0.9770  0.4053
 8193SOL    HW332545   5.361   3.499   4.245 -0.6900  0.1731  3.5793
 8193SOL    MW432546   5.443   3.521   4.261 -0.1148  0.1788 -0.3494
 8194SOL     OW32547   5.695   3.404   5.484 -0.7437 -0.2255 -0.4428
 8194SOL    HW232548   5.769   3.362   5.528 -0.3691  0.5583 -0.2892
 8194SOL    HW332549   5.627   3.411   5.551 -0.1762  0.9626  0.0515
 8194SOL    MW432550   5.696   3.400   5.498  0.3365  0.1707  0.6693
 8195SOL     OW32551   2.634   4.962   3.904 -0.4285  0.3983  0.0626
 8195SOL    HW232552   2.678   4.880   3.926 -0.9755  0.3043  0.8600
 8195SOL    HW332553   2.681   4.996   3.828 -1.5610 -1.7714 -1.7098
 8195SOL    MW432554   2.646   4.956   3.897 -0.4536 -0.1968 -0.2835
 8196SOL     OW32555   2.575   4.263   4.208 -0.1695 -0.0052  0.4429
 8196SOL    HW232556   2.639   4.245   4.140 -0.3626 -2.3758  0.7887
 8196SOL    HW332557   2.552   4.355   4.197  1.8691  0.3879 -0.8780
 8196SOL    MW432558   2.580   4.273   4.198 -0.5362  0.5547 -0.7222
 8197SOL     OW32559   4.802   4.308   4.928 -0.2377  0.6352  0.1527
 8197SOL    HW232560   4.881   4.268   4.966 -0.1321  1.2050  0.5415
 8197SOL    HW332561   4.746   4.233   4.906  0.4240  0.2188 -0.1716
 8197SOL    MW432562   4.805   4.293   4.930 -0.0538 -0.0530 -0.0078
 8198SOL     OW32563   4.983   1.945   5.062 -0.0699 -0.0436 -0.0456
 8198SOL    HW232564   5.064   1.995   5.073 -0.9677  1.1716  1.5837
 8198SOL    HW332565   4.914   2.011   5.067 -1.2093 -1.1489 -0.6152
 8198SOL    MW432566   4.985   1.961   5.064 -0.3112 -0.4633 -0.3690
 8199SOL     OW32567   4.031   6.047   5.295  0.0185  0.4520  0.0984
 8199SOL    HW232568   4.119   6.010   5.288 -0.1730 -0.2354  1.1214
 8199SOL    HW332569   4.044   6.141   5.283  0.9824  0.4352  0.8401
 8199SOL    MW432570   4.045   6.055   5.293  0.2428  0.0158  0.1684
 8200SOL     OW32571   5.247   2.193   4.336  0.2345  0.4782 -0.1467
 8200SOL    HW232572   5.196   2.248   4.278  0.2629  0.1153 -0.5199
 8200SOL    HW332573   5.285   2.126   4.279 -0.7152 -0.6127  0.4511
 8200SOL    MW432574   5.246   2.191   4.321  0.4987  0.7058 -0.4994
 8201SOL     OW32575   5.484   4.322   0.889  0.2131  0.0376  0.9673
 8201SOL    HW232576   5.400   4.355   0.921 -1.9788 -1.6675 -2.4028
 8201SOL    HW332577   5.527   4.398   0.850 -1.0935  0.4648  0.3035
 8201SOL    MW432578   5.479   4.336   0.888 -0.0979  0.2080  0.4489
 8202SOL     OW32579   3.361   5.864   2.299 -0.0111 -0.1964  0.5409
 8202SOL    HW232580   3.266   5.868   2.293 -0.0288  0.0594  1.0124
 8202SOL    HW332581   3.379   5.837   2.389  0.4188  2.0220  1.1721
 8202SOL    MW432582   3.351   5.861   2.310 -0.0657  0.2326 -0.4560
 8203SOL     OW32583   2.196   2.928   1.013 -0.4665 -0.7277  0.0667
 8203SOL    HW232584   2.270   2.980   0.984  0.3115 -1.1097  1.2923
 8203SOL    HW332585   2.122   2.989   1.016 -0.1569 -0.2944 -0.9276
 8203SOL    MW432586   2.196   2.943   1.010 -0.0230  0.5737  0.7105
 8204SOL     OW32587   6.025   0.276   1.575  0.1921  0.3273 -0.6429
 8204SOL    HW232588   5.974   0.298   1.653 -1.2949  0.1899 -1.5324
 8204SOL    HW332589   6.047   0.360   1.535  0.4513  0.3807 -0.3891
 8204SOL    MW432590   6.021   0.290   1.580  0.7881  0.2171  0.9123
 8205SOL     OW32591   2.602   5.548   4.920  0.4470 -0.6292 -0.3426
 8205SOL    HW232592   2.663   5.478   4.942  1.8165  0.1100 -1.5763
 8205SOL    HW332593   2.602   5.605   4.997  2.2164 -0.0548 -0.7270
 8205SOL    MW432594   2.610   5.546   4.933 -0.2868  0.2312 -0.3488
 8206SOL     OW32595   0.015   3.437   2.059 -0.1872  0.2014 -0.2038
 8206SOL    HW232596   0.001   3.427   2.153  3.4884 -0.5704  0.4199
 8206SOL    HW332597  -0.023   3.522   2.038  0.3566  1.1918  2.3810
 8206SOL    MW432598   0.008   3.447   2.069 -0.2535 -0.3636  0.1924
 8207SOL     OW32599   5.988   0.269   0.460  0.5495 -0.0698  0.2945
 8207SOL    HW232600   6.065   0.213   0.471 -0.1988 -1.7575 -2.2732
 8207SOL    HW332601   6.022   0.358   0.468  2.5066 -0.7871  0.5217
 8207SOL    MW432602   6.002   0.273   0.463 -0.5146  0.5154 -0.2345
 8208SOL     OW32603   5.107   1.990   0.412 -0.3464 -0.5614 -0.0520
 8208SOL    HW232604   5.035   1.937   0.447 -0.8214  0.3484  0.3927
 8208SOL    HW332605   5.104   2.071   0.464 -0.7009  0.6008 -1.8016
 8208SOL    MW432606   5.097   1.994   0.424  0.0209  0.5947 -0.5751
 8209SOL     OW32607   5.061   0.826   0.295  0.3157 -0.1912 -0.2377
 8209SOL    HW232608   4.971   0.796   0.307  0.3223 -0.2596 -0.3591
 8209SOL    HW332609   5.074   0.890   0.365  0.1135 -0.0434 -0.3331
 8209SOL    MW432610   5.051   0.830   0.306 -0.0989  0.4100 -0.2948
 8210SOL     OW32611   5.810   3.784   0.336  0.0334  0.2111  0.7850
 8210SOL    HW232612   5.843   3.796   0.247  0.1560 -1.8837  0.5183
 8210SOL    HW332613   5.886   3.804   0.392  1.3459 -2.6746  0.2303
 8210SOL    MW432614   5.824   3.789   0.332 -0.2247  0.2822  0.3290
 8211SOL     OW32615   1.495   4.555   1.585 -0.3290  0.4468 -0.0532
 8211SOL    HW232616   1.553   4.524   1.654 -1.0882 -0.0277  0.3866
 8211SOL    HW332617   1.414   4.579   1.630 -1.7115 -2.0879 -0.9662
 8211SOL    MW432618   1.492   4.554   1.600  0.1688  0.6153 -0.2362
 8212SOL     OW32619   0.687   1.698   2.325 -1.0268  0.0515  0.0077
 8212SOL    HW232620   0.758   1.643   2.358 -1.9372 -0.6300  0.8836
 8212SOL    HW332621   0.652   1.649   2.250  1.1079  1.6460 -2.1985
 8212SOL    MW432622   0.692   1.684   2.319  0.0841 -0.1134 -0.2406
 8213SOL     OW32623   1.985   1.618   5.941 -0.0811  0.0585  0.2505
 8213SOL    HW232624   2.036   1.660   6.010 -0.1766 -1.4188  1.2792
 8213SOL    HW332625   2.002   1.524   5.952 -0.7046 -0.2721 -1.2632
 8213SOL    MW432626   1.994   1.611   5.951 -0.5451  0.4002 -0.1643
 8214SOL     OW32627   0.586   1.185   5.899 -0.4156  0.0720  0.2077
 8214SOL    HW232628   0.552   1.096   5.902 -0.3132  0.0491  0.7712
 8214SOL    HW332629   0.651   1.183   5.830 -0.9976 -0.0805 -0.3468
 8214SOL    MW432630   0.590   1.173   5.890 -0.1694 -0.7308  0.1928
 8215SOL     OW32631   3.006   6.264   1.271  0.4494 -0.4942 -0.1457
 8215SOL    HW232632   2.912   6.279   1.259  0.4116  0.0626  0.7354
 8215SOL    HW332633   3.046   6.297   1.191 -0.1079 -0.7747 -0.5478
 8215SOL    MW432634   2.999   6.270   1.259 -0.2879 -0.2184  0.0090
 8216SOL     OW32635   5.441   2.494   0.377  0.6207 -0.3947 -0.2476
 8216SOL    HW232636   5.452   2.409   0.420  1.4191 -0.1913 -0.0271
 8216SOL    HW332637   5.346   2.505   0.369  0.4631 -0.6911  0.9657
 8216SOL    MW432638   5.430   2.484   0.382  0.1577  0.0717 -0.7757
 8217SOL     OW32639   6.017   4.345   3.390 -0.4539  0.3539 -0.4961
 8217SOL    HW232640   6.007   4.295   3.310 -2.5794 -0.6374  0.3085
 8217SOL    HW332641   6.043   4.433   3.361  0.8856 -0.5191 -2.0804
 8217SOL    MW432642   6.019   4.350   3.376 -0.0704 -0.7147 -0.4757
 8218SOL     OW32643   6.259   6.120   3.480  0.5293 -0.0728  0.1893
 8218SOL    HW232644   6.259   6.052   3.547  0.1573 -1.4809 -1.1982
 8218SOL    HW332645   6.177   6.168   3.494  0.3341 -0.5162  0.5734
 8218SOL    MW432646   6.248   6.117   3.490  0.7083  0.3218  0.8406
 8219SOL     OW32647   6.263   5.633   1.330 -0.1924 -0.3058  0.4323
 8219SOL    HW232648   6.170   5.655   1.339 -0.2682 -1.1758  2.0492
 8219SOL    HW332649   6.307   5.695   1.389  0.4223  0.9609 -1.2772
 8219SOL    MW432650   6.256   5.644   1.339 -0.1113 -0.1324 -0.6128
 8220SOL     OW32651   3.513   3.218   1.079 -0.3331  0.4471  0.6501
 8220SOL    HW232652   3.420   3.196   1.081 -0.2118 -0.0511  2.0367
 8220SOL    HW332653   3.552   3.155   1.019 -0.4953 -1.1409  2.1365
 8220SOL    MW432654   3.506   3.207   1.071  0.3035 -0.1368 -0.0279
 8221SOL     OW32655   2.315   1.862   0.266 -0.2449  0.5526  0.3291
 8221SOL    HW232656   2.361   1.861   0.182  0.6472  0.0516  0.7990
 8221SOL    HW332657   2.331   1.775   0.303  0.9174  1.3503  1.8036
 8221SOL    MW432658   2.323   1.850   0.260 -0.0036 -0.2726  0.2667
 8222SOL     OW32659   0.392   4.449   3.657 -0.0271 -0.5094  0.2807
 8222SOL    HW232660   0.423   4.504   3.584  0.8328 -0.1316  0.9183
 8222SOL    HW332661   0.471   4.411   3.694 -0.5314 -1.3523  0.5150
 8222SOL    MW432662   0.407   4.452   3.652  0.0920 -0.4560 -0.2833
 8223SOL     OW32663   1.456   3.229   1.824  0.2243 -0.4124  0.5255
 8223SOL    HW232664   1.520   3.179   1.773  0.7483  0.8079 -0.0532
 8223SOL    HW332665   1.399   3.269   1.758 -1.2066 -1.5262  1.0347
 8223SOL    MW432666   1.457   3.228   1.808 -0.5889  0.7680 -0.4185
 8224SOL     OW32667   0.489   5.177   5.850 -0.6540  0.3858  0.2039
 8224SOL    HW232668   0.577   5.211   5.833  0.2805 -1.7019  0.5611
 8224SOL    HW332669   0.494   5.138   5.937 -2.4703  1.7984  1.0020
 8224SOL    MW432670   0.501   5.176   5.859 -0.4045  0.7820  0.0336
 8225SOL     OW32671   3.384   3.375   6.304  0.0282 -0.3883  0.1876
 8225SOL    HW232672   3.336   3.395   6.223  2.4565 -1.7795 -1.7475
 8225SOL    HW332673   3.381   3.280   6.310  1.3041 -0.4046  0.7773
 8225SOL    MW432674   3.377   3.365   6.294 -0.1244  0.3663  0.0252
 8226SOL     OW32675   4.654   0.239   0.482 -1.0167 -0.5391 -0.1523
 8226SOL    HW232676   4.603   0.252   0.562 -0.1056 -1.1156  0.5517
 8226SOL    HW332677   4.727   0.182   0.509  0.4460  0.8713 -0.9209
 8226SOL    MW432678   4.657   0.233   0.496 -0.2189  0.3687  0.0483
 8227SOL     OW32679   5.381   4.117   3.023 -0.2631  0.5822 -0.3488
 8227SOL    HW232680   5.397   4.107   2.929 -0.8875  0.2122 -0.4222
 8227SOL    HW332681   5.293   4.081   3.036  0.6243 -1.3442  0.7213
 8227SOL    MW432682   5.371   4.111   3.012  0.3648  0.3065 -0.2729
 8228SOL     OW32683   2.260   5.945   2.273  0.0815 -0.2627 -1.0325
 8228SOL    HW232684   2.226   5.917   2.188 -1.1103  1.1797 -1.0600
 8228SOL    HW332685   2.304   6.028   2.255  1.8512 -1.0542 -0.6100
 8228SOL    MW432686   2.261   5.952   2.260 -0.1727  0.0403 -0.3698
 8229SOL     OW32687   1.817   1.276   5.564  1.0087  0.3904  0.5616
 8229SOL    HW232688   1.800   1.211   5.631 -1.4673 -0.3955 -0.7229
 8229SOL    HW332689   1.739   1.331   5.562  0.5888 -0.1657 -2.2199
 8229SOL    MW432690   1.805   1.275   5.572 -0.3019 -0.6546 -0.2339
 8230SOL     OW32691   5.033   1.087   1.147 -0.1361 -0.0270 -0.2668
 8230SOL    HW232692   5.066   1.144   1.215 -0.3939 -1.2236  0.9076
 8230SOL    HW332693   4.959   1.042   1.187 -1.2629  0.3259 -1.8267
 8230SOL    MW432694   5.027   1.089   1.161 -0.2403  0.4722  0.2547
 8231SOL     OW32695   1.063   3.452   5.093 -0.3179  0.2622 -0.7003
 8231SOL    HW232696   0.974   3.471   5.063 -0.7410  0.3346  0.5354
 8231SOL    HW332697   1.115   3.526   5.064 -0.4664 -0.1856 -2.1852
 8231SOL    MW432698   1.058   3.464   5.085  0.1099 -0.3200  0.1819
 8232SOL     OW32699   6.218   1.799   4.877  1.0860  0.0194 -0.2496
 8232SOL    HW232700   6.290   1.834   4.824  0.2893 -0.9329 -2.0525
 8232SOL    HW332701   6.260   1.765   4.956  2.1014  3.4562  0.9117
 8232SOL    MW432702   6.233   1.799   4.880  0.3786 -0.1233 -0.1505
 8233SOL     OW32703   0.951   4.368   2.385  0.4919 -0.6187 -0.0144
 8233SOL    HW232704   0.980   4.458   2.397  3.2342 -1.3791 -0.2063
 8233SOL    HW332705   0.868   4.363   2.433  0.4804  1.8639  0.3597
 8233SOL    MW432706   0.944   4.379   2.393  0.7169 -0.3133 -0.3895
 8234SOL     OW32707   1.453   5.693   0.402 -0.0876  0.6655  0.2260
 8234SOL    HW232708   1.386   5.637   0.441 -0.6233 -0.0458 -1.6027
 8234SOL    HW332709   1.527   5.686   0.462 -1.8475  2.1698  2.7829
 8234SOL    MW432710   1.454   5.684   0.415 -0.5694 -0.5411 -0.7548
 8235SOL     OW32711   3.236   1.512   5.309 -0.1975  0.4819  0.2838
 8235SOL    HW232712   3.217   1.419   5.318 -1.0530  0.4642 -1.3778
 8235SOL    HW332713   3.155   1.551   5.275  1.1424  1.2130 -2.3678
 8235SOL    MW432714   3.223   1.505   5.306  0.4219  0.5733 -0.0380
 8236SOL     OW32715   4.926   1.176   3.833 -0.0515 -0.0354  0.5122
 8236SOL    HW232716   4.852   1.188   3.773  0.8757  0.7479 -0.5054
 8236SOL    HW332717   4.894   1.112   3.897 -1.2272 -0.5636 -0.5517
 8236SOL    MW432718   4.912   1.169   3.834  0.0796 -0.2242 -0.0715
 8237SOL     OW32719   0.709   5.429   6.067 -0.4024 -0.4926  0.6038
 8237SOL    HW232720   0.716   5.352   6.123 -1.5724 -0.2305  1.1290
 8237SOL    HW332721   0.617   5.454   6.070 -0.2558  0.2804 -0.4398
 8237SOL    MW432722   0.698   5.422   6.074  0.8149 -0.4200  0.9852
 8238SOL     OW32723   4.283   1.895   1.561 -0.3078  0.0426 -0.3076
 8238SOL    HW232724   4.203   1.843   1.546 -1.2467  1.6902 -1.3208
 8238SOL    HW332725   4.342   1.867   1.491 -1.2720  1.1702 -1.6161
 8238SOL    MW432726   4.280   1.884   1.550  0.2523 -0.0735  0.2413
 8239SOL     OW32727   6.021   1.127   0.308  0.0801  0.1659 -0.0399
 8239SOL    HW232728   6.072   1.082   0.377  1.5654 -0.9092 -1.7442
 8239SOL    HW332729   6.060   1.214   0.303 -0.8106  0.6625  1.2348
 8239SOL    MW432730   6.033   1.133   0.317 -0.4572  0.0131  0.6295
 8240SOL     OW32731   0.558   5.792   3.006  0.1976 -0.0704 -0.0601
 8240SOL    HW232732   0.527   5.708   3.041  0.1638 -0.0305  0.0048
 8240SOL    HW332733   0.547   5.784   2.911 -1.7365  0.6227  0.0576
 8240SOL    MW432734   0.552   5.780   2.998 -0.4677  0.1534  0.4479
 8241SOL     OW32735   1.492   4.576   5.652 -0.4894  0.7073 -0.2544
 8241SOL    HW232736   1.573   4.529   5.630  0.6485  1.2462  2.4087
 8241SOL    HW332737   1.504   4.662   5.612 -1.0607 -0.0689 -2.2328
 8241SOL    MW432738   1.504   4.581   5.644 -0.5303 -0.8087  0.2131
 8242SOL     OW32739   1.993   5.288   5.086 -0.2535 -0.2670  0.5348
 8242SOL    HW232740   1.915   5.234   5.101  0.2699 -1.4244 -0.6791
 8242SOL    HW332741   1.973   5.337   5.006 -0.5026  0.9670  1.3296
 8242SOL    MW432742   1.980   5.287   5.078 -0.0128 -0.4044 -0.4402
 8243SOL     OW32743   1.947   1.109   5.102  0.4507 -0.4562  0.3274
 8243SOL    HW232744   2.027   1.133   5.054 -1.0110  0.2327 -1.9723
 8243SOL    HW332745   1.941   1.174   5.172  0.5955  1.2012 -1.1070
 8243SOL    MW432746   1.957   1.121   5.105  0.0231 -0.4008 -0.1321
 8244SOL     OW32747   4.081   2.351   5.143 -0.3137  0.3694  0.1506
 8244SOL    HW232748   4.106   2.415   5.209 -0.8695 -0.2687  1.0204
 8244SOL    HW332749   4.142   2.278   5.157  0.3612  0.7146 -0.8763
 8244SOL    MW432750   4.092   2.349   5.154 -0.2628  0.4398  0.1491
 8245SOL     OW32751   2.088   2.502   3.621  0.2226  0.4187 -0.4656
 8245SOL    HW232752   2.121   2.413   3.631  0.3626  0.6216  1.1311
 8245SOL    HW332753   1.999   2.491   3.587  0.1706 -0.3472 -0.0987
 8245SOL    MW432754   2.081   2.489   3.618 -0.2400 -0.4890 -0.1313
 8246SOL     OW32755   2.911   0.346   5.800  0.0379  0.0280 -0.2194
 8246SOL    HW232756   2.932   0.356   5.893 -0.6449  0.8251 -0.1370
 8246SOL    HW332757   2.917   0.434   5.764 -2.7203  0.3173 -0.2531
 8246SOL    MW432758   2.914   0.359   5.807  0.2192 -0.1982 -0.1681
 8247SOL     OW32759   4.550   4.047   0.895 -0.1167  0.0859  0.1341
 8247SOL    HW232760   4.500   4.115   0.941  0.5717  1.3364 -0.8932
 8247SOL    HW332761   4.549   4.075   0.804 -0.2333 -1.5823 -0.4134
 8247SOL    MW432762   4.543   4.060   0.889  0.1100  0.3008 -0.2013
 8248SOL     OW32763   4.607   1.812   0.045 -0.3526 -0.5794  0.6339
 8248SOL    HW232764   4.525   1.766   0.060 -0.0645 -1.2422  0.2437
 8248SOL    HW332765   4.597   1.853  -0.041  0.4702 -2.4146 -0.4025
 8248SOL    MW432766   4.595   1.811   0.036 -0.0226  0.0135 -0.1490
 8249SOL     OW32767   0.760   1.938   5.452  0.5446 -0.2585  0.1020
 8249SOL    HW232768   0.705   1.901   5.383 -0.0959 -0.6043  0.7709
 8249SOL    HW332769   0.700   1.950   5.526  1.2020  0.1422  0.5820
 8249SOL    MW432770   0.745   1.935   5.453 -0.3345 -1.2002  0.4262
 8250SOL     OW32771   4.001   1.428   0.557  0.3473  0.2173 -0.2683
 8250SOL    HW232772   4.094   1.449   0.569  0.1107  1.1746 -0.0114
 8250SOL    HW332773   3.999   1.333   0.544  1.0828 -0.2273  2.4029
 8250SOL    MW432774   4.013   1.418   0.557  0.2859 -0.1041 -0.3555
 8251SOL     OW32775   2.933   1.228   1.112  0.3609  0.3569 -0.3097
 8251SOL    HW232776   2.927   1.269   1.198  2.5804 -1.4961  0.8361
 8251SOL    HW332777   2.845   1.237   1.075 -0.2243  2.6737  1.4118
 8251SOL    MW432778   2.920   1.235   1.118  0.2873 -0.4751 -0.3339
 8252SOL     OW32779   3.271   0.234   5.380 -0.0847 -0.4585 -0.0627
 8252SOL    HW232780   3.295   0.324   5.401  0.3271  0.0435 -2.4414
 8252SOL    HW332781   3.328   0.180   5.436  0.8233  0.7399  0.2053
 8252SOL    MW432782   3.282   0.239   5.390  0.0989 -0.2841  0.3792
 8253SOL     OW32783   3.908   3.165   2.920  0.0744  0.2283 -0.0786
 8253SOL    HW232784   3.856   3.147   2.842 -1.3656 -0.1524  0.9380
 8253SOL    HW332785   3.877   3.250   2.950 -2.1240 -1.2102  2.1277
 8253SOL    MW432786   3.897   3.174   2.913  0.6386 -0.1569 -0.0885
 8254SOL     OW32787   6.087   5.228   2.945 -0.0500 -0.2951  0.2777
 8254SOL    HW232788   6.055   5.171   2.875 -1.6135  0.6567  0.1589
 8254SOL    HW332789   6.082   5.316   2.907  1.1887  0.0433  0.8524
 8254SOL    MW432790   6.082   5.232   2.930  0.4532 -0.6789 -0.5173
 8255SOL     OW32791   1.239   1.946   6.020  0.0919  0.0360 -0.1506
 8255SOL    HW232792   1.144   1.955   6.028  0.0427 -0.4611 -0.1314
 8255SOL    HW332793   1.253   1.852   6.004  0.8576 -0.6423  3.6815
 8255SOL    MW432794   1.229   1.934   6.019 -0.5251 -0.0212 -0.0904
 8256SOL     OW32795   2.705   2.989   0.099 -0.5940 -0.1462  0.0672
 8256SOL    HW232796   2.782   3.025   0.144 -0.3981  0.1760 -0.5082
 8256SOL    HW332797   2.681   2.912   0.150  0.0731 -0.2142  0.2896
 8256SOL    MW432798   2.712   2.984   0.112  0.0271  0.1226 -0.1382
 8257SOL     OW32799   4.419   3.817   1.257  0.1721 -0.1942 -0.1945
 8257SOL    HW232800   4.508   3.805   1.224  0.8843  1.3385  1.0385
 8257SOL    HW332801   4.426   3.888   1.321 -1.8242 -0.4858  0.4319
 8257SOL    MW432802   4.431   3.825   1.261 -0.4766  0.3541 -0.3169
 8258SOL     OW32803   4.431   0.667   1.105  0.3287 -0.3803  0.4106
 8258SOL    HW232804   4.485   0.732   1.151  0.2008 -0.0481  0.1014
 8258SOL    HW332805   4.369   0.636   1.171 -0.7104  1.0454  0.1482
 8258SOL    MW432806   4.430   0.672   1.120 -0.5722  0.1964  0.1453
 8259SOL     OW32807   0.896   3.053   3.815 -0.3165  0.2878 -0.6980
 8259SOL    HW232808   0.898   3.089   3.904  0.3889 -0.5336 -0.3727
 8259SOL    HW332809   0.814   3.004   3.810 -0.2240  0.1016 -0.3998
 8259SOL    MW432810   0.886   3.051   3.826 -0.2095  0.1703  0.1243
 8260SOL     OW32811   5.236   5.576   3.605 -0.3637  0.1803 -0.1299
 8260SOL    HW232812   5.221   5.569   3.510  0.6430 -1.8554 -0.1945
 8260SOL    HW332813   5.283   5.658   3.616 -0.8963  0.6805 -1.3224
 8260SOL    MW432814   5.240   5.586   3.594 -0.8686  0.6224 -0.1466
 8261SOL     OW32815   3.972   4.775   0.396 -0.1019  0.6192 -0.3089
 8261SOL    HW232816   4.044   4.788   0.459 -0.6529  2.0089  0.0487
 8261SOL    HW332817   3.914   4.849   0.409 -1.7404 -0.5747 -0.4603
 8261SOL    MW432818   3.974   4.786   0.406 -0.2661 -0.3327 -0.2360
 8262SOL     OW32819   4.335   5.716   0.806  0.0095  0.0637 -0.0152
 8262SOL    HW232820   4.410   5.770   0.780 -0.0492  0.3911  0.4773
 8262SOL    HW332821   4.335   5.720   0.902  0.5165 -1.5245  0.0750
 8262SOL    MW432822   4.345   5.724   0.816 -0.2881  0.2974  0.1416
 8263SOL     OW32823   3.866   5.757   3.714  0.6047 -0.1049 -0.0560
 8263SOL    HW232824   3.940   5.812   3.739  2.6537 -2.7980  0.2307
 8263SOL    HW332825   3.861   5.690   3.783 -1.7072 -0.3888 -0.4246
 8263SOL    MW432826   3.875   5.755   3.726 -0.1395  0.1036 -0.5588
 8264SOL     OW32827   1.457   4.115   0.445 -0.1035  0.2589 -0.1877
 8264SOL    HW232828   1.407   4.061   0.506 -0.3406  0.5272 -0.1391
 8264SOL    HW332829   1.417   4.202   0.453 -0.3300  0.2313 -0.9452
 8264SOL    MW432830   1.445   4.120   0.454 -0.3072 -1.0199  0.0791
 8265SOL     OW32831   5.769   3.066   6.165 -0.0615  0.5296 -0.1248
 8265SOL    HW232832   5.702   3.132   6.148 -0.5158  0.0600 -0.1734
 8265SOL    HW332833   5.814   3.097   6.244 -0.5619  0.6656  0.1083
 8265SOL    MW432834   5.766   3.079   6.173  0.7986  0.3171  0.6356
 8266SOL     OW32835   4.743   0.565   6.244  0.0018  0.0739  0.3680
 8266SOL    HW232836   4.780   0.503   6.182 -0.3012 -0.0365  0.2947
 8266SOL    HW332837   4.649   0.545   6.245 -0.2732  1.2227 -0.4550
 8266SOL    MW432838   4.736   0.554   6.236  0.2390  0.5544 -0.2262
 8267SOL     OW32839   4.214   2.831   5.464 -0.2067  0.0103  0.0863
 8267SOL    HW232840   4.177   2.879   5.390 -0.4263 -1.8179 -1.0498
 8267SOL    HW332841   4.268   2.896   5.510 -0.5483  1.3430 -1.3156
 8267SOL    MW432842   4.216   2.846   5.460  0.0037 -0.6313 -0.1495
 8268SOL     OW32843   0.652   0.314   5.179  0.2478  0.1482  0.0569
 8268SOL    HW232844   0.675   0.343   5.091 -0.7896 -1.7541 -0.9127
 8268SOL    HW332845   0.613   0.227   5.166  2.1588 -1.2341  2.5884
 8268SOL    MW432846   0.650   0.306   5.166  0.2164  0.7811  0.6036
 8269SOL     OW32847   0.995   5.787   2.171 -0.7501  0.1219  0.4097
 8269SOL    HW232848   0.911   5.760   2.133 -0.6513  0.7240 -0.2511
 8269SOL    HW332849   1.033   5.706   2.203 -0.2972 -0.6399 -1.8476
 8269SOL    MW432850   0.989   5.773   2.170 -0.2820 -0.0481 -0.6966
 8270SOL     OW32851   1.399   6.076   4.194  0.4985  0.4232  0.2538
 8270SOL    HW232852   1.392   6.084   4.289  2.3877  1.2309  0.3749
 8270SOL    HW332853   1.410   6.165   4.163 -0.3194  0.1891 -0.7613
 8270SOL    MW432854   1.400   6.088   4.203 -0.5581  0.0139  0.5196
 8271SOL     OW32855   3.701   4.508   5.487 -0.0145 -0.4863 -0.1129
 8271SOL    HW232856   3.664   4.570   5.550  0.5155 -0.3301  0.0546
 8271SOL    HW332857   3.697   4.424   5.532 -3.4276 -1.1842 -1.4084
 8271SOL    MW432858   3.696   4.505   5.501 -0.0917  0.2170 -0.5258
 8272SOL     OW32859   5.847   4.716   5.751  0.0228 -0.3832  0.2663
 8272SOL    HW232860   5.785   4.741   5.820 -0.5994  0.1223 -0.4634
 8272SOL    HW332861   5.916   4.669   5.797 -0.9824 -1.0983  1.0716
 8272SOL    MW432862   5.848   4.713   5.766  0.6947  0.2585  0.9535
 8273SOL     OW32863   2.170   4.252   5.379 -0.1111 -0.3094 -0.1398
 8273SOL    HW232864   2.160   4.157   5.365 -1.5029  0.0938 -2.5666
 8273SOL    HW332865   2.260   4.270   5.354  0.1185 -0.9594  0.1809
 8273SOL    MW432866   2.180   4.242   5.374 -0.0863 -0.4554  0.5227
 8274SOL     OW32867   1.648   2.575   5.056 -0.5441  0.6905  0.5346
 8274SOL    HW232868   1.648   2.479   5.063  0.0320  0.4851 -1.6988
 8274SOL    HW332869   1.556   2.599   5.048 -0.6286  0.2209  0.0472
 8274SOL    MW432870   1.636   2.565   5.056 -0.1994  0.0819  0.1828
 8275SOL     OW32871   3.778   3.805   2.098  0.4541  0.0512 -0.1445
 8275SOL    HW232872   3.852   3.834   2.044  1.7063 -0.6737  1.1177
 8275SOL    HW332873   3.763   3.714   2.071 -0.7913  0.5497 -1.2306
 8275SOL    MW432874   3.786   3.797   2.087  0.2785  0.3502 -0.7654
 8276SOL     OW32875   2.196   6.260   2.488  0.2978  0.2577  0.5436
 8276SOL    HW232876   2.275   6.207   2.492 -0.6199 -1.3247 -1.1089
 8276SOL    HW332877   2.152   6.244   2.571  0.9358 -0.1016  0.8195
 8276SOL    MW432878   2.201   6.251   2.499 -0.4343  0.2428  0.1520
 8277SOL     OW32879   3.099   1.596   0.937  0.1405  0.4665  0.3532
 8277SOL    HW232880   3.107   1.682   0.977 -0.4108  0.1799  1.1136
 8277SOL    HW332881   3.103   1.535   1.011 -0.0356 -0.1201 -0.1138
 8277SOL    MW432882   3.100   1.599   0.952 -0.0594 -0.6681  0.4601
 8278SOL     OW32883   2.104   0.883   1.128 -0.7520  0.3073  0.2734
 8278SOL    HW232884   2.181   0.835   1.156  0.1921  1.1952 -0.6924
 8278SOL    HW332885   2.031   0.840   1.171  0.0123 -2.1596 -0.7349
 8278SOL    MW432886   2.104   0.871   1.137 -0.5314  0.3380  0.2890
 8279SOL     OW32887   1.597   0.852   2.434  0.4426  0.0637 -0.8767
 8279SOL    HW232888   1.524   0.799   2.467  2.3762 -1.2308  1.6923
 8279SOL    HW332889   1.632   0.895   2.512  2.4014  0.6748 -2.0282
 8279SOL    MW432890   1.592   0.850   2.449  0.8627  0.2610  0.1295
 8280SOL     OW32891   4.645   5.650   4.264  0.3709  0.4033 -0.1105
 8280SOL    HW232892   4.600   5.639   4.348  1.4938 -0.0547  0.4719
 8280SOL    HW332893   4.585   5.613   4.199 -0.6587  1.0666  0.4397
 8280SOL    MW432894   4.631   5.643   4.267 -0.3522 -0.4932  0.4663
 8281SOL     OW32895   4.887   1.479   1.008 -0.3347 -0.4349  0.7413
 8281SOL    HW232896   4.930   1.406   0.964  0.0967  0.4037 -0.2741
 8281SOL    HW332897   4.942   1.496   1.084  0.6432  0.0299 -0.0482
 8281SOL    MW432898   4.900   1.472   1.012  1.2429 -0.6875  0.4993
 8282SOL     OW32899   4.445   5.490   4.059  0.2981  0.7161  0.0266
 8282SOL    HW232900   4.373   5.542   4.023 -1.6302 -0.3568  2.0900
 8282SOL    HW332901   4.460   5.421   3.995 -1.6000  0.0659  0.2251
 8282SOL    MW432902   4.438   5.488   4.046  0.0672 -0.0231 -0.4283
 8283SOL     OW32903   1.695   2.330   5.501 -0.1515  0.0523 -0.4628
 8283SOL    HW232904   1.767   2.333   5.437  0.4013 -0.5478  0.1219
 8283SOL    HW332905   1.732   2.366   5.581 -0.8452  0.7997 -0.4656
 8283SOL    MW432906   1.709   2.335   5.503 -0.2289  0.8406 -0.5900
 8284SOL     OW32907   5.748   1.709   6.110  0.4613  0.2656  0.1883
 8284SOL    HW232908   5.710   1.797   6.117 -1.3073 -0.4974  0.7379
 8284SOL    HW332909   5.678   1.656   6.072  1.5370 -0.8901 -0.2234
 8284SOL    MW432910   5.733   1.714   6.106 -0.1898  0.0021  0.3605
 8285SOL     OW32911   4.050   0.787   0.238  0.5274 -0.1378  0.5618
 8285SOL    HW232912   4.083   0.833   0.161 -0.8636 -1.1456 -0.7009
 8285SOL    HW332913   4.119   0.726   0.261 -0.3146 -2.3007 -2.0985
 8285SOL    MW432914   4.063   0.785   0.231 -0.2249 -0.1772  0.0158
 8286SOL     OW32915   4.885   2.675   3.148  0.0454 -0.0739 -0.2534
 8286SOL    HW232916   4.886   2.595   3.095  2.2685  0.7398 -1.5358
 8286SOL    HW332917   4.927   2.650   3.230 -1.5921 -0.8161  0.4128
 8286SOL    MW432918   4.891   2.661   3.152 -0.0612  0.3074  0.3430
 8287SOL     OW32919   5.863   5.437   2.658  0.0645  0.1885  0.2929
 8287SOL    HW232920   5.797   5.502   2.683 -1.5417 -1.8628  1.6903
 8287SOL    HW332921   5.852   5.427   2.563  0.2786  1.8016  0.0603
 8287SOL    MW432922   5.853   5.444   2.649  0.9369  0.5154  0.0380
 8288SOL     OW32923   1.802   5.885   6.221  0.3929  0.1099 -0.2161
 8288SOL    HW232924   1.763   5.880   6.308  0.9479  1.6926  0.1526
 8288SOL    HW332925   1.741   5.938   6.170  1.7102  2.1640  0.2226
 8288SOL    MW432926   1.788   5.891   6.225  1.1223 -0.3547  0.0778
 8289SOL     OW32927   2.579   4.319   1.735  0.0706  0.1079 -0.3094
 8289SOL    HW232928   2.651   4.270   1.695  0.3893 -0.2995  0.7300
 8289SOL    HW332929   2.500   4.277   1.703  0.3236 -0.2942 -0.4093
 8289SOL    MW432930   2.578   4.307   1.726  0.3407  0.0434  0.2380
 8290SOL     OW32931   1.090   1.156   3.597 -0.0594  0.0922 -0.2977
 8290SOL    HW232932   1.167   1.135   3.650 -0.6750  0.8047  0.9380
 8290SOL    HW332933   1.086   1.087   3.531  2.8815  1.1817 -1.8214
 8290SOL    MW432934   1.100   1.144   3.595 -0.9300  0.3945  0.2711
 8291SOL     OW32935   2.659   1.020   6.032 -0.5862  0.4941 -0.2494
 8291SOL    HW232936   2.695   1.041   5.946 -0.0872  0.4509 -0.0557
 8291SOL    HW332937   2.736   0.997   6.085 -1.0034 -0.7286 -0.1508
 8291SOL    MW432938   2.674   1.020   6.027 -0.4863 -0.7023 -0.2767
 8292SOL     OW32939   3.745   3.605   6.194 -0.1345  0.4571  0.2102
 8292SOL    HW232940   3.733   3.646   6.108  2.1227  0.1144 -0.3375
 8292SOL    HW332941   3.707   3.518   6.184 -0.5564  0.6856 -0.2086
 8292SOL    MW432942   3.739   3.599   6.181 -0.2993  0.2460 -0.3377
 8293SOL     OW32943   2.264   3.146   3.616  0.0469 -0.1214  0.0129
 8293SOL    HW232944   2.262   3.066   3.564 -2.0193  1.3427 -2.3546
 8293SOL    HW332945   2.296   3.213   3.557 -0.9375  1.3411  1.0692
 8293SOL    MW432946   2.268   3.144   3.602 -0.0689  0.1372 -0.0614
 8294SOL     OW32947   3.797   2.246   5.991 -0.4693  0.2246  0.4028
 8294SOL    HW232948   3.718   2.208   5.952 -0.0815 -1.9675  1.5754
 8294SOL    HW332949   3.859   2.252   5.919 -0.9393 -0.3156 -0.0544
 8294SOL    MW432950   3.795   2.242   5.977 -0.3326 -0.0642 -0.3377
 8295SOL     OW32951   5.445   0.524   1.915 -0.4366 -0.3689 -0.0328
 8295SOL    HW232952   5.378   0.521   1.847 -2.8480  0.8934  2.1156
 8295SOL    HW332953   5.404   0.482   1.991  2.0936 -1.6206  0.7646
 8295SOL    MW432954   5.431   0.518   1.916  0.0052  0.1122 -0.3954
 8296SOL     OW32955   5.343   3.772   0.327 -0.1364  0.0068  0.2165
 8296SOL    HW232956   5.342   3.715   0.251 -1.0462  0.9078 -0.4700
 8296SOL    HW332957   5.408   3.840   0.306  0.0462 -0.0780  0.4981
 8296SOL    MW432958   5.352   3.774   0.314  0.1199  0.4568  0.6656
 8297SOL     OW32959   6.393   3.249   1.858  0.1624 -0.2264 -0.0528
 8297SOL    HW232960   6.305   3.212   1.864 -0.5393  1.1996 -0.9528
 8297SOL    HW332961   6.389   3.329   1.909  0.9579 -0.1516 -0.0956
 8297SOL    MW432962   6.381   3.254   1.865 -0.2127 -0.3920 -0.1940
 8298SOL     OW32963   1.727   1.524   4.443  0.3965  0.2988  0.2027
 8298SOL    HW232964   1.718   1.544   4.349 -1.1737 -1.3073 -0.0493
 8298SOL    HW332965   1.650   1.471   4.463  0.9838  0.1740  2.3015
 8298SOL    MW432966   1.716   1.519   4.433 -0.7433 -0.2159  0.5840
 8299SOL     OW32967   3.568   0.858   1.664 -0.0064 -0.2262 -0.5348
 8299SOL    HW232968   3.500   0.909   1.621  1.0244  0.2894 -1.6136
 8299SOL    HW332969   3.579   0.901   1.749 -2.7233 -1.8296  0.7611
 8299SOL    MW432970   3.561   0.871   1.670 -0.2686  0.4256  0.1234
 8300SOL     OW32971   4.970   3.597   0.961  0.1833 -0.4758 -0.4250
 8300SOL    HW232972   4.948   3.547   0.882 -1.6275 -2.1779  1.0463
 8300SOL    HW332973   4.895   3.584   1.019  1.6210  0.3494  1.7467
 8300SOL    MW432974   4.957   3.588   0.958  0.0981  0.0155  0.4086
 8301SOL     OW32975   0.701   2.614   0.453 -0.1058  0.2927 -0.2502
 8301SOL    HW232976   0.694   2.532   0.403 -0.1401 -0.3539  0.7744
 8301SOL    HW332977   0.629   2.609   0.515  1.2283  0.0008  1.3468
 8301SOL    MW432978   0.690   2.602   0.455  0.5570  0.0869 -0.1959
 8302SOL     OW32979   2.498   1.336   3.252  0.3394  0.4298  0.5821
 8302SOL    HW232980   2.418   1.283   3.253 -1.4521  2.9152  3.4435
 8302SOL    HW332981   2.494   1.384   3.169  1.4280 -2.8040 -1.5311
 8302SOL    MW432982   2.487   1.335   3.241 -0.2726  0.0568  0.3409
 8303SOL     OW32983   6.230   0.117   0.417 -0.2562  0.0903 -0.7964
 8303SOL    HW232984   6.245   0.036   0.467 -0.9395  0.3552 -0.1408
 8303SOL    HW332985   6.303   0.174   0.443 -0.1672 -0.0577 -0.7134
 8303SOL    MW432986   6.242   0.114   0.427 -0.3989 -0.5482 -0.3993
 8304SOL     OW32987   1.420   1.267   6.314 -0.3389  0.1138  0.1029
 8304SOL    HW232988   1.398   1.235   6.401 -0.1240  0.1513  0.1725
 8304SOL    HW332989   1.458   1.354   6.329  1.5767 -0.6815  0.1622
 8304SOL    MW432990   1.422   1.274   6.327 -0.6914  0.2251 -0.1564
 8305SOL     OW32991   1.982   1.022   0.903 -0.2478 -0.3928  0.1903
 8305SOL    HW232992   2.024   0.966   0.969 -0.6525 -0.9080  0.0166
 8305SOL    HW332993   1.889   1.020   0.926 -0.2227  0.5363  0.4216
 8305SOL    MW432994   1.975   1.015   0.915 -0.2821 -0.1268 -0.0078
 8306SOL     OW32995   4.269   6.243   4.899 -0.5459  0.5516  0.1536
 8306SOL    HW232996   4.231   6.156   4.913 -1.4843  0.9083 -0.0937
 8306SOL    HW332997   4.360   6.226   4.875 -0.5773 -0.3384  0.6194
 8306SOL    MW432998   4.276   6.230   4.898  0.3653  0.1857  0.2294
 8307SOL     OW32999   0.049   1.716   6.225  0.0608 -0.4370  0.3638
 8307SOL    HW233000   0.023   1.805   6.247  1.3584  0.3510 -1.1015
 8307SOL    HW333001  -0.020   1.661   6.262 -0.6488  1.1410  1.4972
 8307SOL    MW433002   0.037   1.720   6.233 -0.2396 -0.5428 -0.1349
 8308SOL     OW33003   0.220   2.258   2.990  0.3411  0.4925 -0.1421
 8308SOL    HW233004   0.232   2.325   2.922  0.3847  0.3892 -0.2356
 8308SOL    HW333005   0.138   2.281   3.032 -0.3845 -0.2352 -1.1201
 8308SOL    MW433006   0.211   2.270   2.986 -0.0210  0.0816  0.4726
 8309SOL     OW33007   2.597   5.226   5.859 -0.3211 -0.0073  0.2187
 8309SOL    HW233008   2.507   5.226   5.826 -0.3570 -0.9031  0.2732
 8309SOL    HW333009   2.598   5.156   5.924  0.4656 -0.1459  0.0701
 8309SOL    MW433010   2.585   5.217   5.863  0.2606 -0.4100 -0.0456
 8310SOL     OW33011   4.372   3.817   0.149 -0.0801 -0.4569 -1.0324
 8310SOL    HW233012   4.306   3.750   0.136  0.3731 -0.6233 -2.7222
 8310SOL    HW333013   4.454   3.769   0.162 -0.1947 -0.2479  0.7274
 8310SOL    MW433014   4.374   3.802   0.149  0.5473 -0.1196 -0.5462
 8311SOL     OW33015   0.178   3.538   0.215 -0.4017 -0.0109 -0.3025
 8311SOL    HW233016   0.241   3.529   0.145 -0.5613 -0.3844 -0.4004
 8311SOL    HW333017   0.139   3.624   0.201 -0.1062  0.1089 -0.3967
 8311SOL    MW433018   0.181   3.548   0.204  0.0256 -0.0718 -0.1284
 8312SOL     OW33019   4.078   5.883   0.153  0.2391  0.3925  0.7664
 8312SOL    HW233020   4.051   5.966   0.193  0.3354  0.6841  0.2299
 8312SOL    HW333021   4.042   5.887   0.064  1.0398  0.2703  0.4335
 8312SOL    MW433022   4.069   5.895   0.147  0.5523  0.3566  0.3088
 8313SOL     OW33023   6.036   4.199   0.025 -0.6127 -0.1201  0.5382
 8313SOL    HW233024   6.114   4.147   0.044 -1.6413 -2.2830 -0.6968
 8313SOL    HW333025   5.964   4.135   0.029 -2.3131  1.7642  1.5095
 8313SOL    MW433026   6.037   4.183   0.028 -0.1939  0.2410  0.7771
 8314SOL     OW33027   2.527   0.579   2.690  0.1951 -0.3291  0.0021
 8314SOL    HW233028   2.620   0.599   2.702 -0.1639  0.5450  1.5680
 8314SOL    HW333029   2.510   0.507   2.751  0.1517 -1.5159 -1.3608
 8314SOL    MW433030   2.537   0.572   2.700 -0.1729 -0.5751  0.0704
 8315SOL     OW33031   4.990   5.308   5.378 -0.5293  0.0488  0.6994
 8315SOL    HW233032   5.062   5.249   5.397  1.1484  1.9677  0.6166
 8315SOL    HW333033   4.995   5.323   5.283 -1.9043 -0.8044  0.4534
 8315SOL    MW433034   5.000   5.302   5.368 -0.1187  0.3079  0.2994
 8316SOL     OW33035   4.687   3.832   5.027  0.0406 -0.4284 -0.5803
 8316SOL    HW233036   4.773   3.863   4.999  1.9272 -2.2188  2.4988
 8316SOL    HW333037   4.669   3.882   5.107 -0.7898 -1.4464 -0.1099
 8316SOL    MW433038   4.696   3.843   5.034 -0.3282 -0.0088  0.4438
 8317SOL     OW33039   0.365   5.840   5.162  0.5026  0.0912 -0.5929
 8317SOL    HW233040   0.404   5.921   5.195  0.0619  0.7081 -1.5315
 8317SOL    HW333041   0.324   5.800   5.238 -1.0796  1.8213 -0.4636
 8317SOL    MW433042   0.364   5.845   5.176 -0.1901  0.3244  0.3398
 8318SOL     OW33043   0.116   5.294   0.817  0.0002  0.2185  0.0724
 8318SOL    HW233044   0.054   5.239   0.864 -1.4147  0.7066 -1.1560
 8318SOL    HW333045   0.104   5.382   0.853 -1.2148  0.6277 -1.2696
 8318SOL    MW433046   0.106   5.298   0.828  0.0562 -0.0384 -0.5366
 8319SOL     OW33047   5.276   5.332   2.886  0.2527 -0.2343  1.0946
 8319SOL    HW233048   5.212   5.334   2.957 -0.3980 -0.9591  0.5468
 8319SOL    HW333049   5.224   5.341   2.806  0.9089 -0.0894  0.6758
 8319SOL    MW433050   5.261   5.334   2.885 -0.8960 -0.2081  0.2042
 8320SOL     OW33051   2.180   3.242   2.902  0.2986  0.3901 -0.3135
 8320SOL    HW233052   2.205   3.325   2.862 -1.0899  0.7377 -0.5059
 8320SOL    HW333053   2.158   3.265   2.992 -0.9057  0.3896 -0.5985
 8320SOL    MW433054   2.181   3.256   2.909  0.4362  0.0002  0.4835
 8321SOL     OW33055   3.986   0.006   2.561 -0.1011 -0.0919  0.1081
 8321SOL    HW233056   4.036   0.043   2.633 -0.7904  0.8757  0.1171
 8321SOL    HW333057   4.014   0.057   2.484  0.0368 -0.5736 -0.1684
 8321SOL    MW433058   3.996   0.018   2.560 -0.1517  0.3082 -0.2018
 8322SOL     OW33059   5.310   2.939   4.290  0.1198  0.2720 -0.1891
 8322SOL    HW233060   5.267   2.854   4.303  0.2470  0.0129 -1.2811
 8322SOL    HW333061   5.270   2.973   4.210  0.8710  0.7179 -0.3849
 8322SOL    MW433062   5.299   2.932   4.281 -0.2931 -0.2398  0.9537
 8323SOL     OW33063   1.829   1.370   6.382  0.2016 -0.4344  0.0385
 8323SOL    HW233064   1.833   1.274   6.380  0.2381 -0.4310 -0.0831
 8323SOL    HW333065   1.763   1.392   6.316  0.1386 -0.3785  0.1201
 8323SOL    MW433066   1.820   1.360   6.373 -0.2376 -0.0429  0.1058
 8324SOL     OW33067   3.891   4.145   1.977 -0.1533  0.2117  0.1233
 8324SOL    HW233068   3.802   4.132   2.009  0.0844  0.4033  0.8865
 8324SOL    HW333069   3.926   4.056   1.970 -1.0614 -0.0261 -2.2030
 8324SOL    MW433070   3.884   4.131   1.981 -0.2219  0.6929 -0.0356
 8325SOL     OW33071   5.965   4.668   4.153 -0.4221  0.0651  0.0580
 8325SOL    HW233072   5.890   4.715   4.190  1.3164  1.6138  1.8479
 8325SOL    HW333073   6.001   4.728   4.088  0.7761  0.5058  1.0964
 8325SOL    MW433074   5.960   4.682   4.149  0.3405 -0.5005  0.4576
 8326SOL     OW33075   0.642   5.813   5.962  0.1289 -0.6608 -0.0952
 8326SOL    HW233076   0.581   5.804   6.036  0.4815  1.6775  0.5720
 8326SOL    HW333077   0.607   5.755   5.895 -2.2673 -0.1722  0.6370
 8326SOL    MW433078   0.629   5.804   5.963 -0.0532 -0.1171 -0.0334
 8327SOL     OW33079   1.825   2.583   5.323 -0.0588  0.4166 -0.1969
 8327SOL    HW233080   1.852   2.494   5.300 -0.5799  0.4117 -0.7878
 8327SOL    HW333081   1.750   2.601   5.267 -1.2224  0.4907  1.3168
 8327SOL    MW433082   1.819   2.573   5.313 -0.3307 -0.0572  0.3575
 8328SOL     OW33083   1.008   1.222   5.579  0.1919 -0.4323 -0.1153
 8328SOL    HW233084   1.071   1.265   5.637  2.2777 -2.2605 -0.8927
 8328SOL    HW333085   1.051   1.140   5.553 -1.7451 -0.8889 -2.1931
 8328SOL    MW433086   1.022   1.217   5.583  0.7500 -0.7414 -1.0053
 8329SOL     OW33087   5.294   3.578   2.350  0.3842 -0.4266 -0.5551
 8329SOL    HW233088   5.332   3.541   2.270  1.5705  0.0601 -0.2390
 8329SOL    HW333089   5.251   3.658   2.321  0.3059 -0.5496 -0.7881
 8329SOL    MW433090   5.293   3.584   2.335 -0.1968  0.2898  1.2329
 8330SOL     OW33091   4.617   5.547   3.164  0.6770  0.5511  0.3725
 8330SOL    HW233092   4.574   5.588   3.089  1.6616  2.4830  0.7982
 8330SOL    HW333093   4.710   5.542   3.139  0.8613  0.2956  1.0831
 8330SOL    MW433094   4.624   5.551   3.151 -0.0132  0.2397 -0.0955
 8331SOL     OW33095   6.091   1.213   4.657 -0.0518 -0.1750  0.6478
 8331SOL    HW233096   6.070   1.274   4.727  0.8869  0.4990  0.3627
 8331SOL    HW333097   6.020   1.149   4.659 -1.9748  1.8139 -0.1052
 8331SOL    MW433098   6.079   1.212   4.666  0.3711 -0.2653  0.0675
 8332SOL     OW33099   4.425   5.288   3.877  0.2371 -0.1153  0.5182
 8332SOL    HW233100   4.481   5.219   3.840  1.1727  0.8773  0.0084
 8332SOL    HW333101   4.336   5.256   3.864  0.6555 -1.8545  1.5504
 8332SOL    MW433102   4.421   5.274   3.870  0.2039 -0.0283  0.0041
 8333SOL     OW33103   1.484   6.427   1.291 -0.4867 -0.4569  0.5567
 8333SOL    HW233104   1.393   6.398   1.294 -0.6431  0.0855  1.1028
 8333SOL    HW333105   1.507   6.446   1.382 -0.6180  1.8130  0.1619
 8333SOL    MW433106   1.475   6.425   1.303 -0.1963 -0.1426  0.1369
 8334SOL     OW33107   2.869   0.287   3.844 -0.3166 -0.0618 -0.4818
 8334SOL    HW233108   2.831   0.339   3.774  0.9593  0.5949 -0.7079
 8334SOL    HW333109   2.918   0.218   3.799  1.9431  1.3645 -0.3440
 8334SOL    MW433110   2.870   0.285   3.829  0.2100  0.2927  0.2337
 8335SOL     OW33111   4.076   4.205   0.003  0.9061 -0.2164 -0.6601
 8335SOL    HW233112   4.088   4.232   0.094 -0.2730 -0.4710 -0.4101
 8335SOL    HW333113   4.137   4.260  -0.047  0.2121  1.2929  0.0800
 8335SOL    MW433114   4.085   4.216   0.008 -0.3088 -0.0938  0.3144
 8336SOL     OW33115   6.148   4.561   6.164 -0.0182  0.4037  0.0197
 8336SOL    HW233116   6.182   4.472   6.172  0.2865  0.5998  1.0394
 8336SOL    HW333117   6.202   4.602   6.097 -0.1524 -0.1754 -0.4480
 8336SOL    MW433118   6.159   4.555   6.156  0.2353 -0.3973  0.0373
 8337SOL     OW33119   5.290   5.895   4.805 -0.1827 -0.5621 -0.1363
 8337SOL    HW233120   5.225   5.831   4.835  0.6241 -1.9490 -1.1977
 8337SOL    HW333121   5.316   5.863   4.719  0.4768  1.0708 -0.5716
 8337SOL    MW433122   5.285   5.882   4.798 -0.4685  0.0401 -0.6944
 8338SOL     OW33123   2.334   5.737   3.507 -0.0919 -0.5291  0.1504
 8338SOL    HW233124   2.299   5.790   3.435 -1.6687 -1.0735  0.4574
 8338SOL    HW333125   2.339   5.648   3.471  0.1661 -0.6054  0.3745
 8338SOL    MW433126   2.330   5.732   3.492 -0.0337 -0.0989 -0.0601
 8339SOL     OW33127   1.767   4.202   1.339  0.4721 -0.3648 -0.7237
 8339SOL    HW233128   1.711   4.276   1.361  1.3897 -0.0568  0.6970
 8339SOL    HW333129   1.717   4.153   1.274 -0.9667  0.4826 -0.3009
 8339SOL    MW433130   1.753   4.205   1.333  0.0245 -0.3166  0.5655
 8340SOL     OW33131   5.477   0.867   3.696 -0.2249 -0.1997 -0.2762
 8340SOL    HW233132   5.430   0.925   3.755 -0.6323  1.0522 -1.7613
 8340SOL    HW333133   5.555   0.839   3.745 -0.7189  0.5044  0.9452
 8340SOL    MW433134   5.481   0.871   3.710 -0.0149  0.1922 -0.0481
 8341SOL     OW33135   1.646   4.720   0.048 -0.4541 -0.2573 -0.0722
 8341SOL    HW233136   1.705   4.776  -0.003 -0.6969  0.7211  0.6797
 8341SOL    HW333137   1.694   4.702   0.129 -1.6915  1.7985  1.2173
 8341SOL    MW433138   1.660   4.725   0.052 -0.1066  0.0523  0.4978
 8342SOL     OW33139   1.429   2.716   3.459  0.2364 -0.4540 -0.0118
 8342SOL    HW233140   1.334   2.723   3.471  0.1572 -0.6647 -0.5220
 8342SOL    HW333141   1.450   2.625   3.479  0.1007 -0.8218 -1.4288
 8342SOL    MW433142   1.419   2.705   3.463  0.1514 -0.1105  0.0649
 8343SOL     OW33143   3.396   5.931   0.089  0.1458 -0.1942 -0.0780
 8343SOL    HW233144   3.432   6.017   0.066  0.3292 -0.4970 -0.9518
 8343SOL    HW333145   3.388   5.933   0.184  2.3341 -0.0540  0.1504
 8343SOL    MW433146   3.400   5.943   0.098 -0.5419 -0.6436  0.4917
 8344SOL     OW33147   1.160   0.182   0.135  0.3365  0.0409 -0.2626
 8344SOL    HW233148   1.102   0.143   0.200 -0.7700 -1.8271 -2.2413
 8344SOL    HW333149   1.221   0.112   0.112  2.4511  1.4875  0.6006
 8344SOL    MW433150   1.161   0.168   0.141 -0.2289  0.5737  0.7088
 8345SOL     OW33151   1.119   1.500   1.540 -0.9599  0.0852 -0.1908
 8345SOL    HW233152   1.037   1.509   1.493  0.7333 -0.2330 -3.5037
 8345SOL    HW333153   1.178   1.563   1.498  1.4321 -2.1268 -0.4357
 8345SOL    MW433154   1.116   1.510   1.528 -0.3524  0.4945  0.7153
 8346SOL     OW33155   1.380   0.602   4.533 -0.3142  0.4736  0.2884
 8346SOL    HW233156   1.363   0.642   4.448 -1.0479  1.7085  0.9960
 8346SOL    HW333157   1.390   0.676   4.593 -1.2068 -0.3848  1.5423
 8346SOL    MW433158   1.379   0.617   4.530  0.0759  0.2242  0.6456
 8347SOL     OW33159   0.579   5.286   1.089 -0.4178 -0.4763 -0.0928
 8347SOL    HW233160   0.522   5.209   1.095 -0.1802 -0.5562  2.9754
 8347SOL    HW333161   0.522   5.360   1.111 -0.3800  0.1151 -1.8668
 8347SOL    MW433162   0.564   5.285   1.093 -0.4319 -0.0909  0.0277
 8348SOL     OW33163   0.324   6.048   6.250 -0.3501  0.2567 -0.5376
 8348SOL    HW233164   0.340   6.092   6.333  1.2244 -2.6942  0.8712
 8348SOL    HW333165   0.398   6.073   6.194  0.5217 -0.5442  0.2357
 8348SOL    MW433166   0.336   6.057   6.253 -0.3219  0.7464 -0.2367
 8349SOL     OW33167   1.267   0.754   3.625  0.7496  0.1225  0.5279
 8349SOL    HW233168   1.273   0.761   3.530  0.2607  1.7653  0.5832
 8349SOL    HW333169   1.175   0.731   3.642  0.9303 -0.5722  0.6013
 8349SOL    MW433170   1.255   0.752   3.615  0.4159  0.2528 -0.2761
 8350SOL     OW33171   5.091   4.570   3.307  0.3786 -0.5810 -0.5966
 8350SOL    HW233172   5.095   4.530   3.394 -0.7908  0.6058  0.0363
 8350SOL    HW333173   5.007   4.616   3.305  0.7490  0.1075 -2.0540
 8350SOL    MW433174   5.080   4.571   3.318 -0.4063 -0.7491  0.1619
 8351SOL     OW33175   1.523   1.038   4.765  0.0122  0.0378 -0.8382
 8351SOL    HW233176   1.468   1.108   4.731 -1.5544 -0.6841  0.1009
 8351SOL    HW333177   1.555   1.071   4.849 -1.2499 -0.5636 -0.0860
 8351SOL    MW433178   1.520   1.052   4.772 -0.3618 -0.5047  0.1961
 8352SOL     OW33179   5.183   1.718   1.409  0.0794 -0.4457 -0.2174
 8352SOL    HW233180   5.239   1.757   1.342  0.7791  0.2693  0.7601
 8352SOL    HW333181   5.233   1.642   1.441 -0.7255 -1.4351 -1.2343
 8352SOL    MW433182   5.197   1.713   1.405 -0.1187  0.2555 -0.7259
 8353SOL     OW33183   4.955   5.194   0.176 -0.1774 -0.9027  0.1134
 8353SOL    HW233184   4.948   5.283   0.140  1.5106  0.3351  2.5718
 8353SOL    HW333185   5.024   5.152   0.124  1.3645  0.4222  0.9998
 8353SOL    MW433186   4.963   5.200   0.164  0.3094 -0.5296  0.0887
 8354SOL     OW33187   4.932   2.377   3.639  0.3116  0.2281 -0.2450
 8354SOL    HW233188   4.853   2.392   3.586  0.7703  0.6231 -0.8223
 8354SOL    HW333189   4.898   2.341   3.722 -0.3728 -0.9855 -1.0105
 8354SOL    MW433190   4.917   2.374   3.643  0.1924 -0.2520 -0.7778
 8355SOL     OW33191   5.655   0.963   0.071 -0.0103 -0.4013  0.2309
 8355SOL    HW233192   5.582   0.914   0.033  0.0253  0.0378 -0.4246
 8355SOL    HW333193   5.714   0.978  -0.003  0.5100 -0.3292  0.6564
 8355SOL    MW433194   5.653   0.958   0.056 -0.0715 -0.1246  0.0346
 8356SOL     OW33195   4.968   0.929   5.408  0.0928 -0.1552 -0.1415
 8356SOL    HW233196   4.901   0.953   5.472  0.4622  2.1290 -0.5195
 8356SOL    HW333197   5.051   0.950   5.452  0.5245 -1.5291 -0.2428
 8356SOL    MW433198   4.970   0.935   5.422 -0.3346 -0.2470 -0.0509
 8357SOL     OW33199   1.991   1.018   2.250 -0.5797  1.2431  0.0566
 8357SOL    HW233200   1.954   0.973   2.326 -2.2879  2.2127 -0.1547
 8357SOL    HW333201   2.041   1.090   2.287  0.9588  0.0789  0.3345
 8357SOL    MW433202   1.993   1.022   2.265 -0.3768  0.1307  0.7956
 8358SOL     OW33203   0.708   5.471   1.576  0.7046 -0.4681 -0.5615
 8358SOL    HW233204   0.797   5.472   1.540  0.2242 -0.8681 -1.8170
 8358SOL    HW333205   0.662   5.406   1.522 -0.4979  0.1549 -0.3056
 8358SOL    MW433206   0.714   5.462   1.564 -0.0902 -0.9992 -0.1637
 8359SOL     OW33207   2.230   3.880   5.325  0.1830 -0.3902  0.1891
 8359SOL    HW233208   2.186   3.900   5.242 -0.8673  0.3242  0.8961
 8359SOL    HW333209   2.173   3.818   5.369  0.8033 -0.8721  0.3350
 8359SOL    MW433210   2.217   3.874   5.320 -0.3140  0.3045  0.1776
 8360SOL     OW33211   2.360   1.699   0.598  0.2087  0.3562 -0.3215
 8360SOL    HW233212   2.314   1.654   0.669 -0.7180  1.3869 -0.2525
 8360SOL    HW333213   2.354   1.639   0.524  1.2428 -0.7644  0.4421
 8360SOL    MW433214   2.353   1.685   0.597 -0.6290  0.0600 -0.0837
 8361SOL     OW33215   3.364   1.129   2.322  0.0234  0.8167 -0.0354
 8361SOL    HW233216   3.453   1.164   2.315 -0.1487  1.1083 -0.8150
 8361SOL    HW333217   3.346   1.092   2.236  0.0457 -0.8796  0.6527
 8361SOL    MW433218   3.374   1.129   2.310 -0.5940  0.5507 -0.2116
 8362SOL     OW33219   5.530   6.353   5.533  0.4426  0.6137  0.1670
 8362SOL    HW233220   5.529   6.426   5.594  0.7816  0.2193  0.6530
 8362SOL    HW333221   5.590   6.381   5.463 -1.2625  1.7760 -0.9078
 8362SOL    MW433222   5.538   6.366   5.532  0.0415 -0.3821  0.1419
 8363SOL     OW33223   5.727   4.639   3.711 -0.0310  0.3902 -0.1765
 8363SOL    HW233224   5.682   4.698   3.771  0.4978  0.8612 -0.2371
 8363SOL    HW333225   5.673   4.640   3.632  1.7002  3.5577 -1.5196
 8363SOL    MW433226   5.714   4.647   3.708  0.3266 -0.2286 -0.6991
 8364SOL     OW33227   2.718   1.631   1.432  0.4337  0.3937 -0.0392
 8364SOL    HW233228   2.688   1.713   1.470 -2.0383 -0.0405 -0.8683
 8364SOL    HW333229   2.678   1.628   1.345 -1.0124 -2.4001  0.5842
 8364SOL    MW433230   2.709   1.641   1.426 -0.0574  0.3149  0.1130
 8365SOL     OW33231   3.524   2.804   3.427 -0.1199 -0.8233 -0.2539
 8365SOL    HW233232   3.451   2.864   3.411 -1.0902 -1.6325  0.9730
 8365SOL    HW333233   3.489   2.739   3.488  1.7644 -0.9407  0.7868
 8365SOL    MW433234   3.510   2.804   3.433  0.3137 -0.4143 -0.3696
 8366SOL     OW33235   2.144   3.192   2.217  0.1093 -0.0550  0.1441
 8366SOL    HW233236   2.155   3.262   2.282  0.0229 -0.5200  0.6649
 8366SOL    HW333237   2.232   3.158   2.204  0.6484  1.8982 -2.1341
 8366SOL    MW433238   2.157   3.197   2.224 -0.4255  0.0296 -0.1670
 8367SOL     OW33239   5.392   5.843   2.328  0.4035 -0.2258  0.0717
 8367SOL    HW233240   5.400   5.804   2.241 -1.0668  1.3281 -0.8338
 8367SOL    HW333241   5.463   5.804   2.379 -1.5121 -4.9028 -0.3439
 8367SOL    MW433242   5.402   5.833   2.323  0.6206 -0.5899  0.3496
 8368SOL     OW33243   1.502   6.303   4.077 -0.9313 -0.4853 -0.5609
 8368SOL    HW233244   1.547   6.374   4.121 -0.6211 -1.4590  0.7383
 8368SOL    HW333245   1.550   6.291   3.995  1.1052 -1.3733  0.6908
 8368SOL    MW433246   1.514   6.311   4.072  0.0658 -0.5586 -0.1460
 8369SOL     OW33247   0.940   4.012   5.054 -0.3431  0.0236  0.3197
 8369SOL    HW233248   0.945   4.103   5.082 -0.7070 -0.0862  0.7454
 8369SOL    HW333249   0.854   4.005   5.011 -0.6650 -0.3191  1.0129
 8369SOL    MW433250   0.929   4.023   5.052 -0.0049 -0.1171 -0.4336
 8370SOL     OW33251   1.906   3.802   4.309  0.5563 -0.6883 -0.0855
 8370SOL    HW233252   1.965   3.876   4.296  2.0131 -1.7937  0.0968
 8370SOL    HW333253   1.828   3.841   4.350  2.1474  0.4577  2.0330
 8370SOL    MW433254   1.903   3.817   4.313 -0.1459 -0.1509  0.2238
 8371SOL     OW33255   1.427   2.007   2.912 -0.1086  0.1115 -0.0142
 8371SOL    HW233256   1.349   2.007   2.856 -0.6464  0.4417  0.7138
 8371SOL    HW333257   1.476   2.084   2.884 -1.0161  1.0170  0.8189
 8371SOL    MW433258   1.423   2.017   2.901 -0.0506 -0.1262 -0.4015
 8372SOL     OW33259   4.033   5.509   0.785 -0.0232 -0.5536  0.6430
 8372SOL    HW233260   4.006   5.601   0.776 -0.6265 -0.7700  0.1369
 8372SOL    HW333261   3.954   5.459   0.767  0.2356 -1.1766  1.1993
 8372SOL    MW433262   4.019   5.515   0.781  0.3518  0.5846  0.2423
 8373SOL     OW33263   0.639   1.806   3.771  0.0451 -0.2254  0.1538
 8373SOL    HW233264   0.586   1.777   3.846 -1.2332 -0.1850 -0.7132
 8373SOL    HW333265   0.694   1.730   3.750 -1.3862 -1.1441 -0.4220
 8373SOL    MW433266   0.640   1.792   3.778  0.1560 -0.0642  0.3832
 8374SOL     OW33267   2.703   1.549   6.124  0.1221 -0.0099 -0.0953
 8374SOL    HW233268   2.657   1.477   6.166  0.0778 -0.1275 -0.3464
 8374SOL    HW333269   2.765   1.508   6.065  0.4978  0.1499  0.1821
 8374SOL    MW433270   2.705   1.534   6.122  0.1752  1.0956  0.0330
 8375SOL     OW33271   2.344   4.461   0.953  0.3215  0.4729  0.6211
 8375SOL    HW233272   2.400   4.524   0.997  0.7244  0.5492  0.0075
 8375SOL    HW333273   2.260   4.507   0.942  0.6741  0.9851 -0.0037
 8375SOL    MW433274   2.340   4.476   0.957 -0.0362  0.3003 -1.2713
 8376SOL     OW33275   4.371   0.140   0.683 -0.2974  0.2540  0.0991
 8376SOL    HW233276   4.403   0.057   0.645 -0.6901  0.2251 -0.1739
 8376SOL    HW333277   4.367   0.123   0.777 -3.7432 -1.2755 -0.1592
 8376SOL    MW433278   4.375   0.127   0.691 -0.5270 -0.0792  0.1273
 8377SOL     OW33279   1.107   0.408   5.740 -0.2025  0.0352 -0.1479
 8377SOL    HW233280   1.193   0.396   5.780  1.8132  2.3572 -3.2800
 8377SOL    HW333281   1.113   0.364   5.655 -1.3015  1.9988 -1.3292
 8377SOL    MW433282   1.119   0.401   5.734 -0.6822  0.4286  0.0802
 8378SOL     OW33283   1.127   2.801   2.948 -0.1939 -0.0004  0.3651
 8378SOL    HW233284   1.049   2.780   2.897  0.5262 -0.9565 -0.4071
 8378SOL    HW333285   1.099   2.796   3.040 -1.3669  1.1407  0.0891
 8378SOL    MW433286   1.113   2.797   2.954 -0.1500 -0.0239  0.4477
 8379SOL     OW33287   0.454   5.164   3.693 -0.0979  0.2270 -0.7544
 8379SOL    HW233288   0.485   5.211   3.615  2.2044  1.2840  0.6648
 8379SOL    HW333289   0.404   5.230   3.741  0.3211  0.2339 -0.3274
 8379SOL    MW433290   0.452   5.179   3.689  0.2988  0.2301 -0.5411
 8380SOL     OW33291   6.326   3.459   6.171 -0.0412  0.1614  0.4502
 8380SOL    HW233292   6.255   3.477   6.232  0.7656  0.1892  1.4194
 8380SOL    HW333293   6.403   3.501   6.211  0.1807  1.7065 -1.4611
 8380SOL    MW433294   6.327   3.467   6.184 -0.5309 -0.3677 -0.1328
 8381SOL     OW33295   5.486   0.268   6.151 -0.4207 -0.3626 -0.1354
 8381SOL    HW233296   5.458   0.324   6.079 -0.8046 -0.0728  0.2334
 8381SOL    HW333297   5.550   0.321   6.199  1.4743 -1.3326 -1.4677
 8381SOL    MW433298   5.491   0.282   6.148  0.3756  0.0660 -0.3868
 8382SOL     OW33299   1.774   3.151   2.107 -0.2328  0.1173 -0.3806
 8382SOL    HW233300   1.828   3.090   2.157 -0.0675  0.4072 -0.1969
 8382SOL    HW333301   1.830   3.228   2.095 -0.1413 -0.0990 -1.3481
 8382SOL    MW433302   1.789   3.153   2.112  0.3877 -0.2671 -0.2609
 8383SOL     OW33303   2.578   1.916   2.001  0.0270 -0.0247 -0.3252
 8383SOL    HW233304   2.519   1.846   2.025  1.9200 -0.9475  2.0866
 8383SOL    HW333305   2.640   1.876   1.940 -0.8885  0.5360 -1.6654
 8383SOL    MW433306   2.579   1.902   1.996  0.0185  0.0789 -0.5421
 8384SOL     OW33307   4.507   2.778   4.623 -0.2761 -0.3490 -0.2372
 8384SOL    HW233308   4.465   2.711   4.569  1.4916 -1.5415 -0.2266
 8384SOL    HW333309   4.554   2.728   4.690  1.4754  0.8489 -0.5098
 8384SOL    MW433310   4.508   2.763   4.625  0.0318 -0.0080 -0.0573
 8385SOL     OW33311   0.085   1.082   6.419  0.0877  0.0163  0.5771
 8385SOL    HW233312   0.170   1.080   6.463 -0.0942 -1.4037  0.8974
 8385SOL    HW333313   0.039   1.005   6.453 -0.3877 -0.6370 -1.4426
 8385SOL    MW433314   0.090   1.072   6.430 -0.0670  0.2322  0.6398
 8386SOL     OW33315   2.183   0.524   5.264 -0.5618 -0.1851  0.4219
 8386SOL    HW233316   2.204   0.518   5.170 -2.7459  1.0332 -0.2203
 8386SOL    HW333317   2.239   0.595   5.295  1.5295 -1.7937  0.5358
 8386SOL    MW433318   2.193   0.533   5.255  0.2898 -0.1127 -0.0200
 8387SOL     OW33319   1.774   5.420   0.452  0.0104  0.2391 -0.8282
 8387SOL    HW233320   1.766   5.334   0.492  1.2553  0.2116 -0.6181
 8387SOL    HW333321   1.748   5.406   0.361  0.5273 -0.4266 -0.8799
 8387SOL    MW433322   1.769   5.407   0.445 -0.4720 -0.0992 -0.1394
 8388SOL     OW33323   3.917   4.106   4.411 -0.5441  0.2589 -0.1631
 8388SOL    HW233324   4.003   4.069   4.430 -0.0565 -0.1779 -2.8342
 8388SOL    HW333325   3.936   4.191   4.371 -1.3787  0.3919 -0.3058
 8388SOL    MW433326   3.931   4.113   4.409  0.0272  0.0070 -0.6384
 8389SOL     OW33327   1.445   4.897   2.084  0.4855  0.0513 -0.2082
 8389SOL    HW233328   1.521   4.911   2.139  0.0012  0.0435  0.4720
 8389SOL    HW333329   1.373   4.939   2.131 -0.1025 -0.7157 -0.3932
 8389SOL    MW433330   1.446   4.904   2.097  0.1608 -0.2200  0.1054
 8390SOL     OW33331   0.823   0.939   5.806 -0.1778  0.2722  0.3692
 8390SOL    HW233332   0.910   0.965   5.837 -0.5565 -0.8541  2.5711
 8390SOL    HW333333   0.800   1.006   5.741  2.3996  0.4516 -0.4956
 8390SOL    MW433334   0.831   0.951   5.801 -0.4560  0.2054 -0.2148
 8391SOL     OW33335   0.268   0.607   3.172 -0.3320 -0.1709 -0.3818
 8391SOL    HW233336   0.204   0.536   3.174  1.3092 -1.7283  2.0636
 8391SOL    HW333337   0.352   0.562   3.160  0.9602  1.0342  3.0183
 8391SOL    MW433338   0.271   0.591   3.171  0.0415  0.3988  0.1382
 8392SOL     OW33339   1.217   0.059   4.289 -0.0158 -0.4903 -0.2446
 8392SOL    HW233340   1.223   0.037   4.196 -0.0619 -0.2996 -0.2943
 8392SOL    HW333341   1.204   0.154   4.290  2.7346 -0.0132  0.0166
 8392SOL    MW433342   1.216   0.069   4.277  0.2560 -0.2361 -0.4062
 8393SOL     OW33343   2.674   2.978   3.501 -0.1982 -0.5463 -0.2674
 8393SOL    HW233344   2.756   2.930   3.498 -1.0259 -2.1879  1.3927
 8393SOL    HW333345   2.686   3.051   3.440  2.8233 -0.1380  0.6897
 8393SOL    MW433346   2.686   2.982   3.492 -0.7462 -0.1790 -0.0151
 8394SOL     OW33347   5.429   2.288   5.957  0.6069  0.0281 -0.3557
 8394SOL    HW233348   5.450   2.196   5.942  0.3232 -0.0922 -0.0254
 8394SOL    HW333349   5.514   2.328   5.978  0.4718 -0.5787  1.5576
 8394SOL    MW433350   5.443   2.281   5.958 -0.0185  0.3057 -0.3443
 8395SOL     OW33351   1.596   6.274   0.048 -0.4547  0.3362 -0.1743
 8395SOL    HW233352   1.599   6.179   0.053 -1.0159  0.3464  0.7244
 8395SOL    HW333353   1.663   6.298  -0.015 -0.5511 -0.6734 -0.6690
 8395SOL    MW433354   1.605   6.265   0.041 -0.4229  0.3075 -0.0683
 8396SOL     OW33355   3.686   0.924   4.717 -0.7541  0.0394 -0.0321
 8396SOL    HW233356   3.602   0.926   4.764  0.4614  0.1380  2.2681
 8396SOL    HW333357   3.720   1.013   4.725 -0.5999  0.1144 -1.3377
 8396SOL    MW433358   3.679   0.936   4.725  0.2010  0.4762 -0.5652
 8397SOL     OW33359   4.823   3.050   2.937  0.0232  0.3058  0.4363
 8397SOL    HW233360   4.840   2.960   2.908 -1.9101 -0.1522  0.5980
 8397SOL    HW333361   4.887   3.103   2.889  1.1765 -1.1423  0.3162
 8397SOL    MW433362   4.833   3.045   2.927  0.0268  0.0698  0.2211
 8398SOL     OW33363   5.065   0.235   6.011  0.2557 -0.1928  0.6034
 8398SOL    HW233364   5.098   0.273   5.930 -0.6017 -1.2701 -0.2756
 8398SOL    HW333365   5.106   0.287   6.080  0.8435  0.8713 -0.5134
 8398SOL    MW433366   5.075   0.247   6.010 -0.5888  0.2257  0.0101
 8399SOL     OW33367   3.331   4.352   5.915  0.1216 -0.5407  0.2940
 8399SOL    HW233368   3.407   4.316   5.961 -0.7410 -1.5500  0.9893
 8399SOL    HW333369   3.348   4.446   5.910  0.6769 -0.5247  1.8846
 8399SOL    MW433370   3.343   4.360   5.920 -0.5590  0.1808  0.2808
 8400SOL     OW33371   5.281   1.911   4.616 -0.1213 -0.1757 -0.4069
 8400SOL    HW233372   5.211   1.851   4.589 -0.0240  0.2535 -1.6923
 8400SOL    HW333373   5.319   1.870   4.694 -2.6171  0.2268  1.1290
 8400SOL    MW433374   5.277   1.898   4.623 -0.1332 -0.0369 -0.5203
 8401SOL     OW33375   4.871   4.220   1.169  0.0589  0.4795 -0.5859
 8401SOL    HW233376   4.804   4.204   1.235  0.0021  1.6795 -0.3207
 8401SOL    HW333377   4.953   4.192   1.210 -0.0264  0.8772 -0.1264
 8401SOL    MW433378   4.873   4.215   1.183  0.1443  0.2141  0.4105
 8402SOL     OW33379   4.824   4.468   2.379 -0.2327  0.4341 -0.0525
 8402SOL    HW233380   4.799   4.401   2.315  0.9197  0.3302 -0.4248
 8402SOL    HW333381   4.826   4.421   2.462  2.2942 -0.5220 -0.5452
 8402SOL    MW433382   4.821   4.453   2.381  0.1848  0.4133  0.3578
 8403SOL     OW33383   1.471   0.475   1.782  0.0053  0.5716  0.0944
 8403SOL    HW233384   1.545   0.473   1.721 -0.1448  1.6183 -0.1483
 8403SOL    HW333385   1.512   0.490   1.867  0.0376  2.6490 -0.2186
 8403SOL    MW433386   1.486   0.477   1.785 -0.4568  0.2135  1.0934
 8404SOL     OW33387   4.468   1.973   5.836  0.4377  0.2537 -0.0161
 8404SOL    HW233388   4.426   1.887   5.835  1.6817 -0.3677 -0.7520
 8404SOL    HW333389   4.516   1.977   5.754  0.9349  1.3936  0.3119
 8404SOL    MW433390   4.468   1.962   5.825 -0.5662  0.2418 -1.2871
 8405SOL     OW33391   5.096   0.617   5.254 -0.5166 -0.6210 -0.5301
 8405SOL    HW233392   5.061   0.692   5.206  0.4161 -0.0166 -0.3067
 8405SOL    HW333393   5.155   0.656   5.319  0.5394 -1.5616 -0.8825
 8405SOL    MW433394   5.099   0.632   5.256  0.2376 -0.2683 -0.3273
 8406SOL     OW33395   3.678   1.499   1.271 -0.1157  0.3815 -0.4873
 8406SOL    HW233396   3.644   1.410   1.258  0.1143  0.3437 -0.8671
 8406SOL    HW333397   3.744   1.509   1.202  0.4263  0.5634  0.0532
 8406SOL    MW433398   3.682   1.488   1.260  0.0743 -0.6826 -0.0045
 8407SOL     OW33399   3.779   0.680   6.154 -0.6748  1.0259  0.0668
 8407SOL    HW233400   3.750   0.746   6.217  1.2872 -0.0227  2.2459
 8407SOL    HW333401   3.862   0.714   6.121 -0.1213  0.1237  0.4905
 8407SOL    MW433402   3.786   0.693   6.158  0.0573  0.2789  0.3988
 8408SOL     OW33403   1.573   2.160   0.008 -0.4296  0.2223 -0.4157
 8408SOL    HW233404   1.553   2.190   0.096 -1.0393 -1.2732 -0.0187
 8408SOL    HW333405   1.492   2.119  -0.023  0.8929 -2.9761 -0.0358
 8408SOL    MW433406   1.560   2.158   0.015  0.5269 -0.4333 -0.1860
 8409SOL     OW33407   3.435   4.284   4.320 -0.8050  0.3115 -0.7220
 8409SOL    HW233408   3.352   4.282   4.367 -0.9920 -0.1634 -1.0711
 8409SOL    HW333409   3.461   4.376   4.322 -0.1363  0.1385  1.4875
 8409SOL    MW433410   3.428   4.296   4.327 -0.8499 -0.4670  0.3370
 8410SOL     OW33411   0.961   1.058   3.861  0.4665  0.1078  0.0936
 8410SOL    HW233412   0.906   1.069   3.939 -0.0182  1.5255 -0.4087
 8410SOL    HW333413   1.026   1.128   3.868  1.1064 -0.4452 -0.2248
 8410SOL    MW433414   0.962   1.069   3.872 -0.0658 -0.1608 -0.0444
 8411SOL     OW33415   1.584   1.190   1.878 -0.6780 -0.2984  0.8152
 8411SOL    HW233416   1.546   1.278   1.870 -0.5475 -0.3111 -0.0026
 8411SOL    HW333417   1.651   1.199   1.946 -0.6909  0.2259  0.7636
 8411SOL    MW433418   1.588   1.203   1.886 -0.7412 -0.0824  0.5412
 8412SOL     OW33419   5.664   3.079   3.601  0.1674  0.1317 -0.2462
 8412SOL    HW233420   5.741   3.104   3.651  1.9217 -0.5576 -2.4546
 8412SOL    HW333421   5.640   3.159   3.554 -1.2536  0.6731  1.2771
 8412SOL    MW433422   5.671   3.093   3.601 -0.1478 -0.5797 -0.4793
 8413SOL     OW33423   1.323   0.927   3.978 -0.2809 -0.0055 -0.1050
 8413SOL    HW233424   1.331   0.832   3.979  1.9636  0.1306  0.6006
 8413SOL    HW333425   1.327   0.951   3.886  0.7094 -0.5252 -0.2108
 8413SOL    MW433426   1.325   0.918   3.966  0.8444  0.2292  0.1027
 8414SOL     OW33427   0.488   1.081   1.592  0.0804 -0.5100 -0.1642
 8414SOL    HW233428   0.441   1.142   1.535  0.3061 -0.7223 -0.5827
 8414SOL    HW333429   0.581   1.095   1.571  0.0643 -2.2241 -1.5483
 8414SOL    MW433430   0.494   1.091   1.582  0.3847 -0.4570 -0.7061
 8415SOL     OW33431   0.765   3.077   4.578  0.0266 -0.0323  0.2009
 8415SOL    HW233432   0.829   3.072   4.649  0.5782 -1.4037 -0.3555
 8415SOL    HW333433   0.814   3.109   4.503 -0.7476  2.2830  0.5863
 8415SOL    MW433434   0.780   3.080   4.578 -0.5827 -0.2727  0.2565
 8416SOL     OW33435   5.321   0.924   2.951  0.4707 -0.2382 -0.2836
 8416SOL    HW233436   5.332   0.833   2.980  0.7491  0.0918  0.6789
 8416SOL    HW333437   5.234   0.948   2.982  0.3745 -0.1886 -0.5886
 8416SOL    MW433438   5.311   0.915   2.959  0.6570  0.2258 -0.3300
 8417SOL     OW33439   4.047   3.783   6.041 -0.0704 -0.4679  0.6128
 8417SOL    HW233440   4.076   3.700   6.079 -0.4258 -0.3751  1.0941
 8417SOL    HW333441   4.028   3.762   5.949  0.1503 -0.8426  0.6503
 8417SOL    MW433442   4.048   3.770   6.034  0.2277  0.0291 -0.2492
 8418SOL     OW33443   1.493   3.117   3.528  0.1099 -0.3823  0.0198
 8418SOL    HW233444   1.545   3.047   3.487 -0.6613 -0.9506 -0.0058
 8418SOL    HW333445   1.529   3.124   3.616  2.9246  1.9937 -1.1459
 8418SOL    MW433446   1.505   3.109   3.534  0.6893  0.0610  0.2535
 8419SOL     OW33447   0.380   1.287   5.063  0.1858  0.3054  0.0655
 8419SOL    HW233448   0.377   1.196   5.092  0.8700  0.1369 -0.3758
 8419SOL    HW333449   0.319   1.291   4.989 -0.7238  0.4820  0.8101
 8419SOL    MW433450   0.372   1.276   5.057 -0.0931  0.2241  0.1197
 8420SOL     OW33451   2.129   3.374   2.403  1.1350 -0.2441  0.1539
 8420SOL    HW233452   2.034   3.378   2.417  0.7978 -2.2380 -1.1764
 8420SOL    HW333453   2.153   3.463   2.376 -0.5666 -0.0024 -0.6892
 8420SOL    MW433454   2.119   3.387   2.401 -0.2399  0.3730  0.5352
 8421SOL     OW33455   2.208   1.297   2.133 -0.2235 -0.1952 -0.5426
 8421SOL    HW233456   2.297   1.331   2.137 -0.6968  1.1725 -1.0890
 8421SOL    HW333457   2.152   1.374   2.147 -1.3199 -1.1843  0.8051
 8421SOL    MW433458   2.212   1.312   2.135 -0.5503  0.2349  0.0486
 8422SOL     OW33459   5.207   6.245   5.668  0.1810  0.2374  0.5060
 8422SOL    HW233460   5.111   6.247   5.670 -0.0049 -1.6321 -1.9068
 8422SOL    HW333461   5.230   6.171   5.724  0.2062  0.6300  1.0135
 8422SOL    MW433462   5.197   6.235   5.676 -0.2907  0.2701  0.0364
 8423SOL     OW33463   5.488   3.478   2.816 -0.0594  0.1704 -0.0532
 8423SOL    HW233464   5.499   3.455   2.908  1.8992 -1.3884 -0.6178
 8423SOL    HW333465   5.396   3.460   2.798  0.5555 -4.7358  0.3530
 8423SOL    MW433466   5.477   3.473   2.826  0.4079 -0.3363  0.0206
 8424SOL     OW33467   5.291   0.582   4.572  0.2270  0.1952  0.3478
 8424SOL    HW233468   5.202   0.583   4.535  0.6752  3.8608 -1.0510
 8424SOL    HW333469   5.278   0.594   4.666 -0.7977  0.5961  0.1689
 8424SOL    MW433470   5.277   0.584   4.580  0.3482  0.0454  0.9574
 8425SOL     OW33471   2.469   1.802   5.984 -0.0454 -0.2167  0.3181
 8425SOL    HW233472   2.441   1.842   6.066 -0.0097  0.6784 -0.0969
 8425SOL    HW333473   2.431   1.857   5.915  1.4145  0.1459 -0.2578
 8425SOL    MW433474   2.461   1.815   5.986  0.4412 -0.0339 -0.1893
 8426SOL     OW33475   5.979   1.982   1.739 -0.8734  0.0071  0.1191
 8426SOL    HW233476   6.025   1.908   1.700  0.2938  0.9483 -0.3524
 8426SOL    HW333477   5.886   1.960   1.731 -0.5472 -1.5579  0.3373
 8426SOL    MW433478   5.973   1.970   1.733 -0.1564 -0.2801  0.5736
 8427SOL     OW33479   2.581   3.871   5.770  0.0646  0.2402 -0.2928
 8427SOL    HW233480   2.517   3.922   5.721  0.8509  1.9760  0.3812
 8427SOL    HW333481   2.619   3.811   5.705 -1.8854 -0.5337 -0.7838
 8427SOL    MW433482   2.578   3.870   5.755 -0.4629 -0.4882 -0.0120
 8428SOL     OW33483   6.302   1.142   2.563  0.1955  0.0710  0.2133
 8428SOL    HW233484   6.390   1.113   2.586 -0.2553 -0.6710  1.0417
 8428SOL    HW333485   6.271   1.077   2.499 -0.7515 -1.2869  1.9473
 8428SOL    MW433486   6.309   1.129   2.557  0.1306 -0.7487  0.3790
 8429SOL     OW33487   4.606   3.711   3.137  0.1293  0.8285 -0.4369
 8429SOL    HW233488   4.681   3.757   3.102 -2.1600  5.9134  0.5089
 8429SOL    HW333489   4.611   3.724   3.232 -2.1450  1.8851 -0.3940
 8429SOL    MW433490   4.616   3.719   3.145 -0.3047 -0.4910  0.0671
 8430SOL     OW33491   3.547   4.528   0.352  0.1556 -0.1579  0.2664
 8430SOL    HW233492   3.506   4.602   0.306 -0.6546 -0.2755  0.7833
 8430SOL    HW333493   3.639   4.532   0.326 -0.1185  0.2940 -0.6851
 8430SOL    MW433494   3.554   4.539   0.342  0.0626  0.1567 -0.5109
 8431SOL     OW33495   0.026   4.839   2.081 -0.1684  0.1354  0.4735
 8431SOL    HW233496   0.086   4.795   2.021 -1.0311 -0.2642 -0.1111
 8431SOL    HW333497  -0.057   4.793   2.070 -0.4067  0.1828  1.8206
 8431SOL    MW433498   0.023   4.827   2.072  0.1217  0.2342 -0.0845
 8432SOL     OW33499   3.468   3.649   5.278 -0.0399 -0.0899 -0.4021
 8432SOL    HW233500   3.413   3.572   5.293 -1.3278  0.5483 -1.5786
 8432SOL    HW333501   3.523   3.625   5.204  1.0451 -0.5908  0.5354
 8432SOL    MW433502   3.468   3.636   5.270 -0.4696  0.4600 -0.4890
 8433SOL     OW33503   6.050   6.019   3.217  0.8123 -0.1938  0.0508
 8433SOL    HW233504   6.066   5.927   3.197  0.6195 -0.4166  0.9094
 8433SOL    HW333505   6.018   6.019   3.307  2.0823  0.8231  0.5376
 8433SOL    MW433506   6.048   6.007   3.226 -0.0788  0.0995  0.0597
 8434SOL     OW33507   4.841   2.751   1.494 -0.4573 -1.0528 -0.9357
 8434SOL    HW233508   4.839   2.847   1.492 -0.5471 -1.0530 -2.7316
 8434SOL    HW333509   4.931   2.730   1.518 -1.0433 -0.5716  1.9463
 8434SOL    MW433510   4.853   2.761   1.497  0.7924  0.0652  0.2632
 8435SOL     OW33511   2.003   5.604   3.453  0.3426  0.2763 -0.1331
 8435SOL    HW233512   2.086   5.648   3.434  0.8906 -1.4123 -1.9725
 8435SOL    HW333513   1.936   5.671   3.440  1.3082  1.2646 -0.1382
 8435SOL    MW433514   2.005   5.619   3.449 -0.4880 -0.3735  0.2305
 8436SOL     OW33515   3.742   1.594   1.971 -0.2549  0.5585 -0.4521
 8436SOL    HW233516   3.708   1.649   2.042  0.7189 -0.5122  0.8929
 8436SOL    HW333517   3.676   1.601   1.902 -0.7014  2.4933  0.1048
 8436SOL    MW433518   3.729   1.602   1.971 -0.4260 -0.0339 -0.5226
 8437SOL     OW33519   6.422   1.676   3.842 -0.5616 -0.7051 -0.1618
 8437SOL    HW233520   6.442   1.691   3.749 -0.1754 -0.9970 -0.1298
 8437SOL    HW333521   6.425   1.764   3.881 -0.1067 -0.6466 -0.3129
 8437SOL    MW433522   6.425   1.690   3.835  0.3245 -0.0692 -0.1999
 8438SOL     OW33523   3.970   5.326   1.078 -0.2510 -0.4427 -0.2309
 8438SOL    HW233524   3.907   5.302   1.146 -2.0512  2.0820 -0.8470
 8438SOL    HW333525   3.948   5.270   1.003 -3.9214  2.2154 -1.4471
 8438SOL    MW433526   3.958   5.316   1.077 -0.5430  0.3624  0.2096
 8439SOL     OW33527   5.841   3.571   4.450 -0.1935 -0.2894 -0.1070
 8439SOL    HW233528   5.889   3.541   4.527  1.8823  0.0524 -1.2075
 8439SOL    HW333529   5.845   3.667   4.455 -0.2061 -0.2630 -0.5541
 8439SOL    MW433530   5.848   3.580   4.461 -0.0513  0.1616 -0.0763
 8440SOL     OW33531   4.572   2.107   2.675 -0.7640 -0.1810  0.3487
 8440SOL    HW233532   4.483   2.143   2.675 -1.3213 -1.4401 -0.6572
 8440SOL    HW333533   4.621   2.162   2.614 -0.9851  0.2391  0.5504
 8440SOL    MW433534   4.567   2.119   2.667 -0.2309  0.2290  0.2354
 8441SOL     OW33535   2.420   4.257   5.600 -0.3532  0.4719 -0.0864
 8441SOL    HW233536   2.453   4.333   5.553  1.9859  0.2225  0.9739
 8441SOL    HW333537   2.471   4.184   5.565 -0.9956 -0.2429  0.4378
 8441SOL    MW433538   2.431   4.257   5.589  0.0980 -0.4623  0.2033
 8442SOL     OW33539   3.981   2.040   1.228  0.8254 -0.1858 -0.0457
 8442SOL    HW233540   4.026   2.120   1.199  1.4038 -0.3402  0.4174
 8442SOL    HW333541   3.903   2.036   1.172  2.4214 -1.0633 -2.3668
 8442SOL    MW433542   3.976   2.050   1.217  0.6833 -0.0352 -0.1038
 8443SOL     OW33543   1.150   0.500   3.413  0.8096 -0.1872 -0.1926
 8443SOL    HW233544   1.080   0.544   3.461 -0.0578 -1.1451 -0.5474
 8443SOL    HW333545   1.154   0.546   3.329 -1.0293 -1.5609 -1.1107
 8443SOL    MW433546   1.141   0.512   3.408 -0.3217 -0.2571  0.9606
 8444SOL     OW33547   5.554   5.348   3.173  0.4048 -0.1266 -0.5483
 8444SOL    HW233548   5.625   5.408   3.148  1.1790 -1.2533 -1.1276
 8444SOL    HW333549   5.546   5.288   3.099 -0.0196 -1.0363  0.2165
 8444SOL    MW433550   5.562   5.348   3.160  0.3953 -0.0278  0.1810
 8445SOL     OW33551   6.010   1.710   2.391 -0.1780 -0.3866 -0.5772
 8445SOL    HW233552   5.970   1.717   2.304 -1.6517 -0.4513  0.0696
 8445SOL    HW333553   6.078   1.777   2.391 -0.4529 -0.0839 -1.6287
 8445SOL    MW433554   6.014   1.720   2.379  0.4171 -0.4403  0.2419
 8446SOL     OW33555   2.106   0.618   3.548 -0.1101  0.4054 -0.0124
 8446SOL    HW233556   2.162   0.615   3.471  1.0056 -0.0060  0.7792
 8446SOL    HW333557   2.054   0.537   3.544  1.2337 -0.5188  0.5679
 8446SOL    MW433558   2.106   0.607   3.538 -0.0140 -0.0526 -0.0568
 8447SOL     OW33559   3.440   3.922   1.539 -0.5267  0.4376 -0.2293
 8447SOL    HW233560   3.410   4.010   1.564 -2.1377  0.7188 -2.7433
 8447SOL    HW333561   3.398   3.864   1.603 -0.5509  1.3991  0.6564
 8447SOL    MW433562   3.430   3.926   1.551 -0.3216  0.1366 -0.1693
 8448SOL     OW33563   5.471   3.962   4.696 -0.7756  0.3716 -0.2295
 8448SOL    HW233564   5.534   4.034   4.695 -0.5859  0.2250 -1.7298
 8448SOL    HW333565   5.386   4.003   4.683 -0.9393  0.5100  1.1562
 8448SOL    MW433566   5.468   3.977   4.694 -0.1414 -0.3846  0.7735
 8449SOL     OW33567   5.467   4.884   1.689 -0.4256 -0.6102 -0.3050
 8449SOL    HW233568   5.387   4.833   1.677 -0.9682  0.7791 -4.2787
 8449SOL    HW333569   5.437   4.975   1.690  0.8461 -0.1314  2.5733
 8449SOL    MW433570   5.452   4.890   1.687 -0.2488 -0.0295 -0.3428
 8450SOL     OW33571   5.343   4.589   4.801 -0.3225  0.5536  0.0744
 8450SOL    HW233572   5.358   4.667   4.748  1.2529  1.1640  1.3478
 8450SOL    HW333573   5.321   4.622   4.888 -1.1987 -0.4303  0.2427
 8450SOL    MW433574   5.342   4.603   4.805  0.5745 -0.8831  0.1204
 8451SOL     OW33575   5.521   5.594   0.367  0.0086  0.0371 -0.2759
 8451SOL    HW233576   5.567   5.552   0.294 -3.1224 -0.8683 -1.9388
 8451SOL    HW333577   5.522   5.687   0.346 -1.0942 -0.2357 -1.7549
 8451SOL    MW433578   5.527   5.601   0.354 -0.3148  0.0236 -0.4454
 8452SOL     OW33579   4.636   2.983   1.641 -0.6179  0.4066 -0.6799
 8452SOL    HW233580   4.575   2.919   1.604 -0.4771 -0.0700 -0.1069
 8452SOL    HW333581   4.699   3.001   1.571  0.5348 -1.6116 -0.2361
 8452SOL    MW433582   4.636   2.977   1.627  0.0467  0.4228  0.5277
 8453SOL     OW33583   2.664   3.581   1.510  0.4821  0.3077 -0.0321
 8453SOL    HW233584   2.702   3.569   1.423  1.7816  1.1548  0.3808
 8453SOL    HW333585   2.629   3.670   1.508  1.9085  0.9147  0.7782
 8453SOL    MW433586   2.664   3.591   1.498  0.4310  0.0766 -0.4989
 8454SOL     OW33587   3.195   3.657   2.058  0.2696  0.0466 -0.6670
 8454SOL    HW233588   3.153   3.641   2.142  0.8150 -0.9514 -0.5604
 8454SOL    HW333589   3.218   3.570   2.026  0.2069  0.4259 -1.7783
 8454SOL    MW433590   3.193   3.643   2.065 -0.2040  0.3950 -0.5229
 8455SOL     OW33591   4.949   1.544   5.815 -0.2417  0.1313  0.3207
 8455SOL    HW233592   4.946   1.533   5.910  0.9834  1.0502  0.4810
 8455SOL    HW333593   5.026   1.598   5.799 -1.2465  1.2222 -1.0909
 8455SOL    MW433594   4.959   1.550   5.826 -0.4547  0.3550 -0.1584
 8456SOL     OW33595   3.392   2.340   2.177  0.3312 -0.5631  0.0979
 8456SOL    HW233596   3.445   2.413   2.145 -2.0086  0.8476 -0.8600
 8456SOL    HW333597   3.396   2.274   2.108 -0.2803  0.1571 -0.6509
 8456SOL    MW433598   3.399   2.341   2.164  0.5313 -0.1749 -0.5595
 8457SOL     OW33599   1.582   4.358   4.121 -0.1642  0.3936 -0.1924
 8457SOL    HW233600   1.644   4.290   4.096 -0.3633  0.1252  0.0390
 8457SOL    HW333601   1.620   4.399   4.199 -0.2708  0.2330 -0.0542
 8457SOL    MW433602   1.595   4.354   4.128 -0.0115 -0.0129  0.0202
 8458SOL     OW33603   3.927   4.260   0.478 -0.2427 -0.1036  0.1467
 8458SOL    HW233604   3.891   4.347   0.498 -1.2644  0.2919 -2.9324
 8458SOL    HW333605   3.882   4.202   0.540 -0.5790  1.3373  1.3348
 8458SOL    MW433606   3.916   4.264   0.489 -0.2581  0.3905 -0.4116
 8459SOL     OW33607   0.341   0.491   5.059 -0.0716  0.3495  0.3540
 8459SOL    HW233608   0.396   0.568   5.044  2.2638 -0.9228  1.8872
 8459SOL    HW333609   0.343   0.477   5.154 -0.0968 -1.8241  0.0864
 8459SOL    MW433610   0.348   0.499   5.070  0.0016  0.4622 -0.1159
 8460SOL     OW33611   0.723   3.870   5.365 -0.4459  0.2768  0.2857
 8460SOL    HW233612   0.688   3.781   5.368  0.9932 -0.2852  1.0063
 8460SOL    HW333613   0.811   3.860   5.328 -0.8032  1.5924 -0.9998
 8460SOL    MW433614   0.730   3.857   5.360 -0.0260 -0.1980 -0.4393
 8461SOL     OW33615   0.237   0.276   1.799  0.3973 -0.3412  0.2075
 8461SOL    HW233616   0.195   0.241   1.877 -0.2363  1.1522  0.5644
 8461SOL    HW333617   0.167   0.284   1.735  0.3056  1.1452  0.4534
 8461SOL    MW433618   0.222   0.273   1.801  1.0140  0.1574  0.1479
 8462SOL     OW33619   5.318   1.843   6.351 -0.7214 -0.2796  0.2877
 8462SOL    HW233620   5.304   1.749   6.337 -1.1638 -0.2212  0.3349
 8462SOL    HW333621   5.250   1.869   6.412 -1.6216  0.4040 -0.9531
 8462SOL    MW433622   5.308   1.834   6.357  0.3881 -0.7101 -0.3025
 8463SOL     OW33623   0.921   2.209   6.055 -0.1144  0.3477  0.0866
 8463SOL    HW233624   0.879   2.240   5.974  0.0476  1.5167  0.4396
 8463SOL    HW333625   0.993   2.271   6.070 -0.1173  0.1170  1.1054
 8463SOL    MW433626   0.925   2.221   6.046 -0.0284 -0.0289  0.2577
 8464SOL     OW33627   2.451   2.088   1.400  0.0615 -0.5797  0.1547
 8464SOL    HW233628   2.448   2.148   1.326 -0.7847  0.1829  0.7805
 8464SOL    HW333629   2.445   2.144   1.477 -2.4461 -1.5133  0.7352
 8464SOL    MW433630   2.450   2.103   1.400 -0.6540 -0.1012  0.0243
 8465SOL     OW33631   1.563   2.275   3.111 -0.0197  0.2500 -0.1442
 8465SOL    HW233632   1.482   2.317   3.084 -0.1657  0.2753  0.3176
 8465SOL    HW333633   1.534   2.192   3.151  0.2916 -0.5444 -1.5108
 8465SOL    MW433634   1.548   2.269   3.113 -0.0351 -0.8027  0.4942
 8466SOL     OW33635   5.692   0.902   3.920 -0.5573  0.4889 -0.6321
 8466SOL    HW233636   5.786   0.914   3.911 -0.7860  1.6163 -1.9717
 8466SOL    HW333637   5.680   0.808   3.927  0.7558  0.3973  1.1050
 8466SOL    MW433638   5.703   0.891   3.919  0.0649 -0.0225 -0.5423
 8467SOL     OW33639   0.184   3.611   4.752  0.6135 -0.4324  0.4593
 8467SOL    HW233640   0.129   3.612   4.674 -1.0907 -0.4295  1.6130
 8467SOL    HW333641   0.244   3.685   4.740  0.2327 -0.2928 -0.7294
 8467SOL    MW433642   0.185   3.621   4.740  0.2020  0.3523 -0.0633
 8468SOL     OW33643   0.214   0.877   2.154 -0.0662  0.0877 -0.1673
 8468SOL    HW233644   0.284   0.918   2.103 -0.4084 -1.1266 -1.6771
 8468SOL    HW333645   0.196   0.939   2.225  3.3978 -0.1140  1.0596
 8468SOL    MW433646   0.221   0.890   2.157 -0.0160  0.2030  0.1502
 8469SOL     OW33647   0.274   6.025   2.711 -0.0348  0.1303 -0.0593
 8469SOL    HW233648   0.244   5.963   2.778  1.0964 -0.8730 -0.4478
 8469SOL    HW333649   0.342   6.076   2.754 -0.9852  1.1606  0.2683
 8469SOL    MW433650   0.279   6.024   2.726 -0.2646 -0.3229  0.0410
 8470SOL     OW33651   2.870   5.949   3.953  0.3950  0.2739 -0.2313
 8470SOL    HW233652   2.802   5.924   3.891  0.5493  2.4108 -1.3656
 8470SOL    HW333653   2.947   5.966   3.898  0.3984  2.7270  0.4138
 8470SOL    MW433654   2.871   5.948   3.938 -0.0003  0.0030  0.6899
 8471SOL     OW33655   0.501   4.579   4.608 -0.6395  0.2357  0.4780
 8471SOL    HW233656   0.418   4.531   4.611 -0.6884  0.3474  2.2702
 8471SOL    HW333657   0.545   4.556   4.690  0.8039  0.7161 -0.1264
 8471SOL    MW433658   0.496   4.570   4.619  0.2848  0.2116  0.0775
 8472SOL     OW33659   5.167   2.812   2.770 -0.2380 -0.1141  0.2137
 8472SOL    HW233660   5.098   2.844   2.828 -1.1478 -1.0207 -0.3192
 8472SOL    HW333661   5.189   2.887   2.715 -0.2506  0.4000  0.8950
 8472SOL    MW433662   5.161   2.826   2.771 -0.2003  0.4567 -0.6944
 8473SOL     OW33663   6.086   5.979   1.306 -0.5907  0.0659 -0.0803
 8473SOL    HW233664   6.018   5.978   1.374 -0.5787 -0.7009 -0.0633
 8473SOL    HW333665   6.042   6.015   1.229 -0.6849  0.6706  0.2548
 8473SOL    MW433666   6.071   5.983   1.305 -0.0131 -0.3870  0.4790
 8474SOL     OW33667   6.294   2.689   4.108  0.2020  0.0057  0.1144
 8474SOL    HW233668   6.244   2.770   4.096  1.4376  0.9487  0.9788
 8474SOL    HW333669   6.323   2.693   4.199 -1.8297 -2.6872  1.0167
 8474SOL    MW433670   6.291   2.700   4.119 -0.2626  0.3037  0.6447
 8475SOL     OW33671   1.508   0.835   2.914  0.4544  0.3694 -1.0859
 8475SOL    HW233672   1.459   0.844   2.996  1.8189 -0.1078 -0.1844
 8475SOL    HW333673   1.458   0.770   2.864  2.3054 -3.5431  1.6150
 8475SOL    MW433674   1.495   0.827   2.918  0.5933 -0.2173 -0.4385
 8476SOL     OW33675   0.105   2.766   1.587  0.3419  0.1835 -0.3020
 8476SOL    HW233676   0.068   2.737   1.504 -0.3144  2.2058 -0.7741
 8476SOL    HW333677   0.045   2.732   1.653 -0.7402  0.9370 -0.8671
 8476SOL    MW433678   0.093   2.758   1.585 -0.2866 -0.4096 -0.1519
 8477SOL     OW33679   5.562   5.916   4.069 -0.4653 -0.0525  0.5778
 8477SOL    HW233680   5.548   5.942   3.978 -0.5666 -0.2122  0.5472
 8477SOL    HW333681   5.488   5.956   4.116 -0.6181 -0.2804  0.5315
 8477SOL    MW433682   5.550   5.925   4.063  0.4192  0.5215  0.2293
 8478SOL     OW33683   3.518   3.584   5.784 -0.2704 -0.0493  0.0598
 8478SOL    HW233684   3.540   3.574   5.692  0.5915 -2.1658  0.4340
 8478SOL    HW333685   3.422   3.580   5.787 -0.2500 -2.4243 -0.5739
 8478SOL    MW433686   3.508   3.582   5.773  0.6598  0.7435 -0.1756
 8479SOL     OW33687   0.096   5.060   2.251 -0.0710 -0.6422  0.5499
 8479SOL    HW233688   0.190   5.044   2.255  0.7622  2.2206 -3.1375
 8479SOL    HW333689   0.064   5.003   2.181 -0.6796 -0.0781  0.3532
 8479SOL    MW433690   0.104   5.050   2.243 -0.1802  0.3075  0.3901
 8480SOL     OW33691   0.535   5.260   0.418  0.4833 -0.0757  0.0386
 8480SOL    HW233692   0.495   5.291   0.498  0.2199 -3.1009  1.2028
 8480SOL    HW333693   0.623   5.299   0.418 -0.1049  1.3168  0.8591
 8480SOL    MW433694   0.542   5.269   0.428  0.1783  0.0317 -0.2799
 8481SOL     OW33695   4.074   6.210   3.841  0.3501 -0.0360 -1.0370
 8481SOL    HW233696   4.060   6.252   3.926 -0.6150 -2.7137  0.2617
 8481SOL    HW333697   4.146   6.258   3.801  0.9988  1.1614  1.3984
 8481SOL    MW433698   4.081   6.222   3.847  0.4835 -0.2417  0.8150
 8482SOL     OW33699   3.399   3.036   0.456  0.2524  1.0409 -0.4922
 8482SOL    HW233700   3.401   3.080   0.541 -1.2076 -0.3309  0.3041
 8482SOL    HW333701   3.491   3.015   0.438  0.5899  1.3362  0.7499
 8482SOL    MW433702   3.412   3.039   0.465 -0.6329  0.4385  0.0568
 8483SOL     OW33703   4.160   1.626   2.218  0.0205  0.1657  0.7703
 8483SOL    HW233704   4.240   1.582   2.246  0.4199  1.3229  1.5033
 8483SOL    HW333705   4.189   1.706   2.176 -0.6167 -1.0906 -2.3139
 8483SOL    MW433706   4.174   1.631   2.216 -0.3817 -0.9259 -0.9027
 8484SOL     OW33707   5.800   5.384   6.280  0.2269  0.0501  0.6280
 8484SOL    HW233708   5.761   5.466   6.250 -1.0555 -0.4444  0.8610
 8484SOL    HW333709   5.833   5.343   6.200 -1.5427 -0.4209  0.0830
 8484SOL    MW433710   5.799   5.389   6.266  0.2084  0.4642  0.7246
 8485SOL     OW33711   5.185   3.602   1.649 -0.0576 -0.3474 -0.4780
 8485SOL    HW233712   5.172   3.693   1.677  1.1446 -0.5042  0.6589
 8485SOL    HW333713   5.180   3.606   1.554 -0.4029  0.8446 -0.4334
 8485SOL    MW433714   5.182   3.615   1.640 -0.4462 -0.8367  0.3233
 8486SOL     OW33715   5.130   3.049   5.543 -0.2688  0.1048  0.2298
 8486SOL    HW233716   5.117   2.976   5.483  0.5341 -0.4901  0.7581
 8486SOL    HW333717   5.224   3.067   5.540 -0.5998  1.9218 -0.7980
 8486SOL    MW433718   5.141   3.042   5.535 -0.1823  0.0246 -0.5181
 8487SOL     OW33719   4.410   0.130   1.322  0.0933  0.2309 -0.3622
 8487SOL    HW233720   4.453   0.161   1.242 -1.5203  2.1293 -0.5618
 8487SOL    HW333721   4.459   0.171   1.393 -0.9714  1.9745 -0.5730
 8487SOL    MW433722   4.422   0.139   1.321  0.0814  0.0342  0.1759
 8488SOL     OW33723   1.045   5.454   2.948 -0.2867  0.3518 -0.4849
 8488SOL    HW233724   1.074   5.544   2.964 -0.1377  0.5331 -1.6740
 8488SOL    HW333725   1.063   5.440   2.855  1.0917 -1.4110 -0.0080
 8488SOL    MW433726   1.051   5.464   2.938  0.2554 -0.0255  0.3454
 8489SOL     OW33727   3.552   4.848   3.241  0.4899  0.0345  0.3902
 8489SOL    HW233728   3.496   4.911   3.285  1.0237  0.4925  0.4284
 8489SOL    HW333729   3.533   4.860   3.148  0.6983  0.3542  0.3897
 8489SOL    MW433730   3.542   4.858   3.234  0.4748  0.0219  0.1559
 8490SOL     OW33731   1.086   2.151   0.918 -0.2658 -0.3393  0.2950
 8490SOL    HW233732   1.082   2.110   1.005  0.5243  0.2993  0.6402
 8490SOL    HW333733   1.045   2.237   0.931  0.0862 -0.1412  0.1035
 8490SOL    MW433734   1.080   2.157   0.931  0.1088 -0.2065 -0.4454
 8491SOL     OW33735   4.478   0.266   1.568  0.3428  0.5012  0.1186
 8491SOL    HW233736   4.411   0.203   1.596  0.5118  0.3223  0.1260
 8491SOL    HW333737   4.540   0.269   1.641  0.4082  0.5726  0.0607
 8491SOL    MW433738   4.477   0.258   1.582  0.3900  0.4564  0.3618
 8492SOL     OW33739   3.031   1.307   3.670  0.7346 -0.2812  0.3130
 8492SOL    HW233740   2.997   1.297   3.581  1.8190  0.8897 -0.2809
 8492SOL    HW333741   3.115   1.260   3.669  0.1508 -1.3802  1.1306
 8492SOL    MW433742   3.038   1.299   3.658  0.7028  0.1436  0.1787
 8493SOL     OW33743   2.202   5.060   0.129  0.2971  0.1893  0.4903
 8493SOL    HW233744   2.161   4.995   0.185  0.9809 -0.5093  0.1963
 8493SOL    HW333745   2.147   5.138   0.138  0.0834 -0.0862  1.6816
 8493SOL    MW433746   2.190   5.062   0.138 -0.1444  0.4171  0.8221
 8494SOL     OW33747   3.271   5.410   5.508  0.3332  0.6969  0.1029
 8494SOL    HW233748   3.215   5.398   5.431  0.9747  1.4179 -0.4829
 8494SOL    HW333749   3.286   5.321   5.541 -0.9284  0.4667  0.1175
 8494SOL    MW433750   3.265   5.397   5.503 -0.2480  0.5702 -0.1076
 8495SOL     OW33751   0.326   1.146   0.109 -0.3183  0.0222 -0.2621
 8495SOL    HW233752   0.360   1.184   0.190 -1.0774 -1.3436  0.7320
 8495SOL    HW333753   0.399   1.151   0.048  0.5671  0.2433  0.7813
 8495SOL    MW433754   0.340   1.152   0.112 -0.0912 -0.1850 -0.3850
 8496SOL     OW33755   5.518   4.668   4.249  0.2872  0.8097 -0.3145
 8496SOL    HW233756   5.546   4.604   4.184  1.6442  0.8536  0.2055
 8496SOL    HW333757   5.491   4.616   4.324  0.5955  0.8237 -0.1946
 8496SOL    MW433758   5.518   4.653   4.250  0.0351  0.1069  0.0872
 8497SOL     OW33759   6.097   3.807   3.134  0.1444  0.2750 -0.7152
 8497SOL    HW233760   6.114   3.731   3.079 -0.3591 -0.6485  0.3646
 8497SOL    HW333761   6.137   3.786   3.218 -1.7480  0.2572  0.2554
 8497SOL    MW433762   6.104   3.794   3.138  0.3051  0.4786 -0.1477
 8498SOL     OW33763   4.900   3.410   2.319 -0.4550  0.1222  0.5842
 8498SOL    HW233764   4.804   3.418   2.315 -0.3856  0.6925 -0.3911
 8498SOL    HW333765   4.918   3.326   2.276 -0.5084  0.1682  0.4693
 8498SOL    MW433766   4.889   3.400   2.313  0.3538  0.1422 -0.3268
 8499SOL     OW33767   2.835   3.940   2.132  0.2052 -0.0096 -0.0482
 8499SOL    HW233768   2.751   3.937   2.087  0.7278  1.5117 -1.2098
 8499SOL    HW333769   2.884   3.865   2.097 -1.1226 -1.8439  1.7589
 8499SOL    MW433770   2.830   3.930   2.122  0.2505 -0.2838 -0.0726
 8500SOL     OW33771   0.236   1.267   5.352  0.1287  0.0119  0.2053
 8500SOL    HW233772   0.150   1.300   5.377 -0.1101 -0.8619  0.5824
 8500SOL    HW333773   0.293   1.292   5.424  0.0243 -0.0728  0.3187
 8500SOL    MW433774   0.232   1.274   5.365 -0.7062 -0.9295 -0.0864
 8501SOL     OW33775   0.488   6.334   0.410 -0.2218  0.1466  0.6222
 8501SOL    HW233776   0.540   6.354   0.488  1.2217 -0.8804 -0.0353
 8501SOL    HW333777   0.457   6.419   0.379  2.2321  0.9996  0.2825
 8501SOL    MW433778   0.491   6.348   0.416  0.5502  0.1313 -0.7329
 8502SOL     OW33779   3.008   4.835   2.514 -0.3018 -0.2738  0.2259
 8502SOL    HW233780   3.000   4.799   2.426 -2.2443  0.7285 -0.0606
 8502SOL    HW333781   3.100   4.860   2.521 -0.0798 -0.4752 -1.4818
 8502SOL    MW433782   3.019   4.833   2.503 -0.1853  0.2519  0.7443
 8503SOL     OW33783   3.221   4.390   1.696  0.7035  0.0195 -0.6344
 8503SOL    HW233784   3.283   4.317   1.683  0.9580  0.1049  0.0906
 8503SOL    HW333785   3.277   4.465   1.718  0.3003 -0.1504  1.1142
 8503SOL    MW433786   3.237   4.390   1.697  0.8456  0.7794 -0.0920
 8504SOL     OW33787   2.659   3.095   4.940 -0.2911 -0.3182 -0.6033
 8504SOL    HW233788   2.697   3.027   4.885  0.3997 -0.3853 -0.0576
 8504SOL    HW333789   2.732   3.128   4.992 -0.9257 -0.2461  0.2603
 8504SOL    MW433790   2.673   3.091   4.939 -0.2001  0.9562 -0.5028
 8505SOL     OW33791   6.130   3.131   1.906 -0.0142  0.0099  0.0810
 8505SOL    HW233792   6.117   3.036   1.913  2.6938 -0.3574  1.5547
 8505SOL    HW333793   6.041   3.168   1.908 -1.1577 -2.4826 -0.9591
 8505SOL    MW433794   6.116   3.123   1.907  0.0806  0.6045  0.0191
 8506SOL     OW33795   4.365   6.128   5.384 -0.5763 -0.4134  0.3884
 8506SOL    HW233796   4.367   6.168   5.297  0.2843 -0.0301  0.5693
 8506SOL    HW333797   4.429   6.179   5.434 -0.6205 -1.0208  1.0713
 8506SOL    MW433798   4.374   6.140   5.379  0.3754 -0.0152  0.2014
 8507SOL     OW33799   0.252   4.632   3.904 -0.1703 -0.1927 -0.1290
 8507SOL    HW233800   0.289   4.584   3.978 -0.0442  0.7199  0.4133
 8507SOL    HW333801   0.209   4.565   3.851 -1.7379 -0.6586  1.6395
 8507SOL    MW433802   0.252   4.617   3.907  0.4130 -0.0345 -0.4483
 8508SOL     OW33803   2.800   5.529   2.503 -0.5225  0.5299 -0.2877
 8508SOL    HW233804   2.725   5.479   2.470  0.4286 -0.0790 -1.6153
 8508SOL    HW333805   2.802   5.609   2.450 -1.2242  1.3601  0.9035
 8508SOL    MW433806   2.791   5.533   2.492  0.3034  0.0600 -0.1734
 8509SOL     OW33807   0.175   4.187   2.788  0.1372  0.4768  0.3186
 8509SOL    HW233808   0.188   4.213   2.879 -0.7416 -0.8997  0.8706
 8509SOL    HW333809   0.247   4.127   2.769  0.6793  1.2525 -0.1082
 8509SOL    MW433810   0.186   4.182   2.797  0.4651 -0.1842  0.4379
 8510SOL     OW33811   4.189   2.640   4.290  0.0559  0.2436  0.1117
 8510SOL    HW233812   4.107   2.595   4.307  0.4950 -0.8726 -0.6111
 8510SOL    HW333813   4.220   2.603   4.207  0.7533  1.4257 -0.1724
 8510SOL    MW433814   4.182   2.629   4.281  0.3950  0.3714 -0.1252
 8511SOL     OW33815   0.239   4.679   5.104  0.0259 -1.0908 -0.4616
 8511SOL    HW233816   0.266   4.677   5.196 -3.0035  0.3867  0.5999
 8511SOL    HW333817   0.295   4.746   5.065  1.1759 -1.5364  0.3585
 8511SOL    MW433818   0.250   4.688   5.111 -0.2816  0.2802  0.1710
 8512SOL     OW33819   0.796   0.660   2.314  0.2450 -0.3805 -0.1982
 8512SOL    HW233820   0.854   0.586   2.296  1.6247  0.4480  0.6499
 8512SOL    HW333821   0.844   0.737   2.284 -0.0831  0.3969  1.1558
 8512SOL    MW433822   0.810   0.660   2.308 -0.5166  0.0958  0.3179
 8513SOL     OW33823   4.969   2.842   2.520  0.0613  0.2593  0.3323
 8513SOL    HW233824   4.947   2.905   2.452 -1.2087 -0.7704 -0.2758
 8513SOL    HW333825   5.037   2.884   2.572  0.7106  1.2738 -1.2702
 8513SOL    MW433826   4.975   2.856   2.518 -0.2051 -0.3570  0.6291
 8514SOL     OW33827   2.131   3.655   3.985  0.4828  0.0729  0.3240
 8514SOL    HW233828   2.193   3.688   4.050 -1.0373  2.2837  0.7604
 8514SOL    HW333829   2.070   3.601   4.036  1.3834 -1.2477  0.0616
 8514SOL    MW433830   2.131   3.652   4.001 -0.3246  0.0437  0.3402
 8515SOL     OW33831   2.805   4.822   3.355 -0.0374 -0.4433  0.1998
 8515SOL    HW233832   2.812   4.795   3.446 -0.8903 -1.4333 -0.0002
 8515SOL    HW333833   2.835   4.913   3.354  0.7345 -0.6626  1.3171
 8515SOL    MW433834   2.810   4.830   3.367  0.0567 -0.1941  0.5132
 8516SOL     OW33835   4.015   3.896   3.034  0.3261 -0.0963 -0.4263
 8516SOL    HW233836   3.951   3.837   2.993  0.8971 -1.0400  0.0080
 8516SOL    HW333837   4.085   3.904   2.969  0.5865 -0.4794 -0.1935
 8516SOL    MW433838   4.016   3.889   3.020  0.6640 -0.2322 -0.2228
 8517SOL     OW33839   3.541   6.136   2.581 -0.2138 -0.1491 -0.5090
 8517SOL    HW233840   3.500   6.173   2.660 -0.5451  0.8129 -1.1119
 8517SOL    HW333841   3.616   6.194   2.564 -0.7029  0.2323 -1.4366
 8517SOL    MW433842   3.546   6.148   2.589 -0.2703  0.1447 -0.2443
 8518SOL     OW33843   5.082   6.125   4.555  0.0700 -0.4101 -0.1341
 8518SOL    HW233844   5.005   6.170   4.518 -0.6648 -1.1825  0.4215
 8518SOL    HW333845   5.085   6.041   4.509  0.7774 -0.2576 -0.3768
 8518SOL    MW433846   5.072   6.120   4.544  0.0442 -0.1604 -0.3348
 8519SOL     OW33847   3.966   6.345   1.284  0.0305 -0.8640 -0.9185
 8519SOL    HW233848   3.976   6.256   1.250 -2.0368 -1.5538  0.1492
 8519SOL    HW333849   3.872   6.362   1.281 -0.0286 -0.0986  2.2631
 8519SOL    MW433850   3.955   6.336   1.279 -0.5180 -0.0815  0.5860
 8520SOL     OW33851   3.384   1.674   0.119  0.4722 -0.7179  0.2770
 8520SOL    HW233852   3.371   1.668   0.024  0.9227 -0.2892  0.1832
 8520SOL    HW333853   3.352   1.591   0.153 -0.9967 -0.3347 -0.1031
 8520SOL    MW433854   3.378   1.662   0.111 -0.5016  0.6471 -0.7920
 8521SOL     OW33855   4.913   4.648   2.760 -0.2658  0.4932  0.0380
 8521SOL    HW233856   4.900   4.730   2.713  0.2683  0.5541 -0.0118
 8521SOL    HW333857   4.949   4.588   2.694  0.9675  0.7272  0.4786
 8521SOL    MW433858   4.916   4.651   2.745 -0.5185 -0.1039  0.0001
 8522SOL     OW33859   1.629   5.551   2.596 -0.2279  0.3733  0.2287
 8522SOL    HW233860   1.687   5.552   2.672  0.0678  0.4533  0.0069
 8522SOL    HW333861   1.569   5.624   2.610  0.6470  1.2178 -0.2277
 8522SOL    MW433862   1.629   5.561   2.608 -0.4854 -0.0368 -0.2297
 8523SOL     OW33863   5.793   4.893   0.284 -0.0338 -0.1473  0.1976
 8523SOL    HW233864   5.826   4.983   0.290  4.1845 -1.5657  1.1726
 8523SOL    HW333865   5.803   4.858   0.373 -2.6553 -1.3859  0.1106
 8523SOL    MW433866   5.798   4.900   0.297 -0.5027  0.0347 -0.1850
 8524SOL     OW33867   6.378   3.666   4.899 -0.4964 -0.0130  0.4875
 8524SOL    HW233868   6.313   3.660   4.829 -1.3384 -1.3909  1.3342
 8524SOL    HW333869   6.462   3.668   4.854 -0.9767 -1.5741 -0.5731
 8524SOL    MW433870   6.380   3.665   4.884 -0.1002  0.3586  0.3182
 8525SOL     OW33871   5.874   5.748   2.951  0.0628 -0.3456 -0.4635
 8525SOL    HW233872   5.835   5.664   2.976  0.6161  0.2791  2.9982
 8525SOL    HW333873   5.957   5.751   2.999 -0.0294  2.2537 -0.3332
 8525SOL    MW433874   5.880   5.737   2.961 -0.6146  0.0760 -0.0223
 8526SOL     OW33875   1.052   2.485   3.490  0.3842 -0.0839 -0.4430
 8526SOL    HW233876   1.069   2.454   3.401 -0.8348 -0.8522 -0.4239
 8526SOL    HW333877   1.007   2.568   3.478 -0.7001 -0.6787 -0.5705
 8526SOL    MW433878   1.049   2.492   3.477 -0.2315  0.1751  0.0671
 8527SOL     OW33879   0.973   2.808   1.402  0.3761 -0.0466 -0.2996
 8527SOL    HW233880   0.889   2.823   1.445  0.2688 -0.7495 -0.2640
 8527SOL    HW333881   1.034   2.866   1.449  0.0135  0.1107 -0.0134
 8527SOL    MW433882   0.970   2.818   1.414 -0.0387 -0.7561 -0.4769
 8528SOL     OW33883   0.210   5.162   4.747  0.6564  0.5529 -0.0415
 8528SOL    HW233884   0.220   5.071   4.775  3.6619  0.6816 -0.3596
 8528SOL    HW333885   0.208   5.212   4.829  0.2602  0.2986  0.1061
 8528SOL    MW433886   0.211   5.157   4.761  0.3531  0.2562 -0.2234
 8529SOL     OW33887   0.821   5.384   4.826  0.4621 -0.1283 -0.1881
 8529SOL    HW233888   0.786   5.429   4.902  1.4381  1.2600 -0.5323
 8529SOL    HW333889   0.845   5.454   4.765  0.7682 -1.1638 -1.3053
 8529SOL    MW433890   0.819   5.399   4.828  0.2910  0.1296 -0.1665
 8530SOL     OW33891   0.435   4.371   2.739 -0.4759 -0.0708 -0.3228
 8530SOL    HW233892   0.476   4.451   2.774 -0.1168 -1.1825  2.0139
 8530SOL    HW333893   0.441   4.308   2.811 -0.7312 -2.2379 -2.0916
 8530SOL    MW433894   0.442   4.373   2.753 -0.1716 -0.6018 -0.2445
 8531SOL     OW33895   1.841   2.371   0.017  0.3367  0.1945 -0.2193
 8531SOL    HW233896   1.752   2.344   0.039  0.4183  0.9159  1.1072
 8531SOL    HW333897   1.895   2.294   0.036 -0.0655 -0.5114 -1.7798
 8531SOL    MW433898   1.837   2.357   0.022 -0.3978 -0.3604 -0.4617
 8532SOL     OW33899   5.368   6.275   0.487 -0.5446 -0.2566 -0.0753
 8532SOL    HW233900   5.418   6.222   0.424 -0.2390 -1.0705  0.8356
 8532SOL    HW333901   5.291   6.303   0.438 -1.0335 -2.0622 -0.4242
 8532SOL    MW433902   5.364   6.272   0.472  0.1292 -0.2023 -0.5080
 8533SOL     OW33903   5.652   4.740   6.172 -0.7670  0.3306 -0.9022
 8533SOL    HW233904   5.698   4.818   6.202 -3.1055  1.5635 -0.2873
 8533SOL    HW333905   5.560   4.767   6.165 -1.4031 -1.9216 -2.2969
 8533SOL    MW433906   5.646   4.754   6.175 -0.2727 -0.5725  0.5876
 8534SOL     OW33907   1.390   0.219   3.230  0.2510  0.0405  1.0309
 8534SOL    HW233908   1.463   0.175   3.273 -0.1712  0.0105  1.7328
 8534SOL    HW333909   1.314   0.200   3.285 -0.9834 -2.6478 -1.3415
 8534SOL    MW433910   1.389   0.211   3.243  0.0964  0.2392 -0.0020
 8535SOL     OW33911   5.668   3.247   2.539 -0.3158 -0.6957  0.0823
 8535SOL    HW233912   5.698   3.163   2.574  0.9097 -1.4761 -2.6039
 8535SOL    HW333913   5.729   3.311   2.576 -0.5575 -1.1081  1.2446
 8535SOL    MW433914   5.680   3.245   2.548  0.2328 -0.0071 -1.0096
 8536SOL     OW33915   5.188   2.147   3.343 -0.1425  0.0242 -0.1932
 8536SOL    HW233916   5.187   2.093   3.264 -0.4654 -2.4391  1.3723
 8536SOL    HW333917   5.280   2.151   3.369 -0.1841 -0.2782  0.0041
 8536SOL    MW433918   5.200   2.140   3.336  0.3568  0.3615 -0.5235
 8537SOL     OW33919   2.492   4.783   2.692  0.0933  0.0338 -0.0733
 8537SOL    HW233920   2.494   4.820   2.604 -1.2208 -0.4574 -0.3216
 8537SOL    HW333921   2.583   4.785   2.721  0.5044  0.3973 -1.3540
 8537SOL    MW433922   2.504   4.788   2.685 -0.0197 -0.7232 -1.0031
 8538SOL     OW33923   4.980   3.526   5.095 -0.0040  0.1818  0.0828
 8538SOL    HW233924   4.892   3.540   5.061  0.1123 -1.1502 -0.8684
 8538SOL    HW333925   5.008   3.444   5.054  2.1168  1.1675 -0.5943
 8538SOL    MW433926   4.972   3.517   5.085  0.1100 -0.3895 -0.0198
 8539SOL     OW33927   5.912   6.337   2.517 -0.0728  0.4315 -0.6457
 8539SOL    HW233928   5.823   6.348   2.551 -0.2826 -0.6370 -0.8066
 8539SOL    HW333929   5.965   6.320   2.595 -0.3180 -0.6368 -0.6910
 8539SOL    MW433930   5.907   6.336   2.532  0.0384 -0.4567  0.3886
 8540SOL     OW33931   2.497   1.664   2.121  0.3113  0.8676  0.1195
 8540SOL    HW233932   2.580   1.626   2.150 -0.1934  0.8994  1.6515
 8540SOL    HW333933   2.461   1.599   2.061  1.4761  0.9017 -0.6562
 8540SOL    MW433934   2.503   1.651   2.117  0.1667 -0.7966 -0.1770
 8541SOL     OW33935   2.988   2.053   2.133 -0.7062  0.0430  0.4038
 8541SOL    HW233936   3.020   2.135   2.170  0.7381 -0.8382  1.2513
 8541SOL    HW333937   2.923   2.022   2.197  0.1985 -0.4108  1.1360
 8541SOL    MW433938   2.984   2.060   2.146 -0.0224  0.2326  0.0152
 8542SOL     OW33939   0.618   4.147   0.366 -0.0388  1.1217  0.2634
 8542SOL    HW233940   0.526   4.136   0.390  0.0727  0.9313  0.6106
 8542SOL    HW333941   0.662   4.169   0.449  0.4205  0.0552  0.3139
 8542SOL    MW433942   0.612   4.149   0.380  0.0655 -0.2658 -0.1425
 8543SOL     OW33943   0.249   6.043   0.666 -0.1690 -0.3260 -0.3056
 8543SOL    HW233944   0.251   5.971   0.602  2.1829 -0.6300  0.0273
 8543SOL    HW333945   0.224   6.001   0.748 -1.6001 -0.2205 -0.6617
 8543SOL    MW433946   0.246   6.028   0.668  0.8236  0.5158 -0.0605
 8544SOL     OW33947   2.303   1.961   4.094 -0.0779 -0.0868 -0.4989
 8544SOL    HW233948   2.345   1.875   4.086 -0.1158 -0.0036 -1.9819
 8544SOL    HW333949   2.219   1.950   4.049  0.1060  0.8265 -1.1137
 8544SOL    MW433950   2.297   1.948   4.087 -0.3414  0.0151  0.2499
 8545SOL     OW33951   0.827   2.343   5.826  0.4828  0.0512  0.5676
 8545SOL    HW233952   0.804   2.425   5.870  0.0770  0.8749 -1.1085
 8545SOL    HW333953   0.908   2.364   5.779 -0.4224 -0.0027 -1.1021
 8545SOL    MW433954   0.835   2.357   5.826  0.1412 -0.2084 -0.1022
 8546SOL     OW33955   4.914   5.954   4.981  0.8006  0.4202 -0.0296
 8546SOL    HW233956   4.982   6.015   4.951  0.8375  1.6233  2.2279
 8546SOL    HW333957   4.940   5.933   5.071 -1.5617  0.5801  0.7496
 8546SOL    MW433958   4.927   5.959   4.989  0.3779 -0.1173 -0.2084
 8547SOL     OW33959   0.472   2.834   2.933 -0.3322  0.1300 -0.5436
 8547SOL    HW233960   0.486   2.748   2.974 -0.9644  0.1929 -0.1857
 8547SOL    HW333961   0.483   2.818   2.839  0.7555 -0.0939 -0.3992
 8547SOL    MW433962   0.476   2.820   2.926 -0.4878  0.1746 -0.5574
 8548SOL     OW33963   0.902   5.700   5.463  0.0167  0.0378 -0.3521
 8548SOL    HW233964   0.811   5.726   5.449 -0.3448 -1.3166 -0.7077
 8548SOL    HW333965   0.934   5.675   5.376  0.2811 -0.7904 -0.0333
 8548SOL    MW433966   0.894   5.700   5.449  0.0482 -0.3512  0.8543
 8549SOL     OW33967   2.617   1.177   3.465  0.3917  0.3996 -0.1824
 8549SOL    HW233968   2.603   1.254   3.409 -0.6146  0.9990  0.8501
 8549SOL    HW333969   2.541   1.176   3.522 -0.7665 -2.6240 -1.5710
 8549SOL    MW433970   2.605   1.187   3.465  0.5831  0.3807  0.2955
 8550SOL     OW33971   1.514   3.865   5.955 -0.3225 -0.8085  0.0446
 8550SOL    HW233972   1.561   3.930   5.903 -0.1771 -0.6576  0.3670
 8550SOL    HW333973   1.456   3.916   6.011 -0.1506 -0.9554  0.3569
 8550SOL    MW433974   1.512   3.880   5.956  0.2198 -0.4125  0.3475
 8551SOL     OW33975   4.416   2.341   0.719 -0.4201  0.3923  0.4497
 8551SOL    HW233976   4.486   2.283   0.747 -0.3697  1.2952  2.3805
 8551SOL    HW333977   4.460   2.409   0.669 -0.4400 -0.9888 -1.5511
 8551SOL    MW433978   4.431   2.342   0.716  0.5651  0.5006 -0.0693
 8552SOL     OW33979   5.605   0.964   1.710 -0.3793 -0.0564  0.2812
 8552SOL    HW233980   5.655   1.043   1.690  1.7152 -1.3626  0.0179
 8552SOL    HW333981   5.550   0.989   1.784  0.5402  1.5213  0.4910
 8552SOL    MW433982   5.604   0.978   1.717 -0.1801 -0.3610  0.4800
 8553SOL     OW33983   1.117   6.203   2.871  0.0677  0.8379  0.3201
 8553SOL    HW233984   1.156   6.115   2.868 -1.4088  0.1730 -0.3291
 8553SOL    HW333985   1.023   6.187   2.876 -0.4400  2.3296 -2.3075
 8553SOL    MW433986   1.110   6.189   2.871  0.8515  0.7082  0.3918
 8554SOL     OW33987   5.712   1.385   4.600  0.4996  0.3234 -0.2214
 8554SOL    HW233988   5.766   1.439   4.543  1.7894 -1.1890 -0.4990
 8554SOL    HW333989   5.736   1.295   4.578 -1.3624 -0.3734  0.4311
 8554SOL    MW433990   5.722   1.381   4.590  0.6149 -0.2303 -0.2051
 8555SOL     OW33991   3.264   5.947   4.781  0.6291  0.1114 -0.3556
 8555SOL    HW233992   3.323   5.940   4.856  1.5255  0.8395 -0.9769
 8555SOL    HW333993   3.248   6.041   4.771 -0.2878 -0.0475 -0.4700
 8555SOL    MW433994   3.270   5.959   4.790  0.7086  0.5181  0.3920
 8556SOL     OW33995   5.470   4.299   2.092 -0.3491 -0.3300 -0.3766
 8556SOL    HW233996   5.541   4.278   2.153  0.1663 -0.0371 -0.8707
 8556SOL    HW333997   5.420   4.217   2.085  0.5871 -0.8709 -0.8867
 8556SOL    MW433998   5.473   4.285   2.099  0.1170  0.2669  0.0693
 8557SOL     OW33999   3.316   1.936   0.764  0.5650  0.4594  0.2026
 8557SOL    HW234000   3.311   1.840   0.770  1.6105  0.3931  0.0810
 8557SOL    HW334001   3.240   1.967   0.813 -0.1883 -0.4485 -0.3568
 8557SOL    MW434002   3.305   1.927   0.771 -0.1602 -0.0822 -0.5477
 8558SOL     OW34003   2.360   3.662   1.142 -0.1016  0.2764  0.0826
 8558SOL    HW234004   2.329   3.722   1.209  1.2118 -0.4263  1.3812
 8558SOL    HW334005   2.434   3.708   1.101  0.2395 -0.0186  0.3620
 8558SOL    MW434006   2.366   3.676   1.145  0.1252  0.3083  0.5778
 8559SOL     OW34007   0.937   1.940   6.038 -0.0636 -0.1639  0.8960
 8559SOL    HW234008   0.918   2.027   6.003  0.0725 -0.5572 -0.1667
 8559SOL    HW334009   0.923   1.880   5.965 -0.9848 -1.1439  1.8314
 8559SOL    MW434010   0.932   1.944   6.024  0.2271  0.0080 -0.0530
 8560SOL     OW34011   3.670   5.077   5.217 -0.3784  0.7107 -0.2538
 8560SOL    HW234012   3.728   5.061   5.143 -0.6474  1.0323 -0.5379
 8560SOL    HW334013   3.585   5.042   5.189 -0.3206  0.2362  0.1619
 8560SOL    MW434014   3.666   5.070   5.203 -0.0229  0.0697 -0.3275
 8561SOL     OW34015   5.245   5.669   6.276  0.0691  0.5169 -0.1385
 8561SOL    HW234016   5.221   5.729   6.205 -0.0044 -0.4423 -0.9429
 8561SOL    HW334017   5.319   5.620   6.242  0.4222  0.4664  0.6899
 8561SOL    MW434018   5.251   5.670   6.262 -0.4544  0.5297 -0.3021
 8562SOL     OW34019   2.574   2.318   4.546 -1.0470 -0.9269 -0.2344
 8562SOL    HW234020   2.594   2.362   4.463  1.4592 -0.8792  0.3242
 8562SOL    HW334021   2.641   2.250   4.554 -1.4041 -1.1125  1.6244
 8562SOL    MW434022   2.585   2.315   4.536  0.1457  0.2506  0.6474
 8563SOL     OW34023   0.023   1.702   3.212 -0.2041  0.3101 -0.0565
 8563SOL    HW234024   0.100   1.716   3.268 -1.5468  0.2844  1.9243
 8563SOL    HW334025  -0.007   1.791   3.191  1.5853  0.3708 -2.7511
 8563SOL    MW434026   0.029   1.716   3.217  0.6019 -0.0700 -0.4523
 8564SOL     OW34027   0.547   5.757   4.287  0.3899  0.0366 -0.3541
 8564SOL    HW234028   0.580   5.813   4.217 -1.5853 -0.4741 -1.7873
 8564SOL    HW334029   0.559   5.668   4.254  2.4142 -0.4100  1.3959
 8564SOL    MW434030   0.553   5.753   4.274  0.5415 -0.3092  0.4119
 8565SOL     OW34031   5.423   1.045   1.956  0.5423 -0.2299 -0.7978
 8565SOL    HW234032   5.388   1.133   1.941  0.0590 -0.2613  0.0842
 8565SOL    HW334033   5.357   1.002   2.012  1.6926 -0.4988  0.3939
 8565SOL    MW434034   5.409   1.051   1.962 -0.2267 -0.1693  0.1424
 8566SOL     OW34035   4.207   0.029   4.026  0.4437  0.6327 -0.6832
 8566SOL    HW234036   4.274   0.051   4.090 -0.9231  0.9111  0.7069
 8566SOL    HW334037   4.254   0.023   3.943  2.1527  0.9197  0.2255
 8566SOL    MW434038   4.222   0.031   4.024  0.0421  0.6269  0.2880
 8567SOL     OW34039   2.959   0.603   5.693 -0.0980 -0.2426 -0.0936
 8567SOL    HW234040   2.892   0.648   5.744  0.9774  0.4622  0.7367
 8567SOL    HW334041   2.930   0.613   5.602  0.4434  2.8390 -0.0392
 8567SOL    MW434042   2.947   0.611   5.687 -0.1261  0.4509  0.1444
 8568SOL     OW34043   4.376   5.116   3.084 -0.1102  0.3596  0.1125
 8568SOL    HW234044   4.306   5.105   3.149 -1.3565  0.3561 -1.1783
 8568SOL    HW334045   4.434   5.182   3.122  0.3788 -1.1425  2.1492
 8568SOL    MW434046   4.374   5.123   3.097  0.3185 -0.0500  0.1514
 8569SOL     OW34047   1.147   4.731   1.136  0.1124 -0.1213 -0.1129
 8569SOL    HW234048   1.111   4.820   1.134  0.5146  0.0408 -0.2946
 8569SOL    HW334049   1.225   4.738   1.191  1.0827  0.0041 -1.4566
 8569SOL    MW434050   1.153   4.744   1.143  0.1610 -0.1473 -0.0903
 8570SOL     OW34051   5.200   1.989   1.090  0.8296 -0.6929 -0.0127
 8570SOL    HW234052   5.275   1.958   1.141  1.2433 -1.2901 -0.9357
 8570SOL    HW334053   5.158   1.908   1.059 -0.9977 -0.4184  1.5622
 8570SOL    MW434054   5.205   1.974   1.093 -0.0090  0.2381  0.3337
 8571SOL     OW34055   0.285   5.522   1.639  0.5235  0.0483  0.1274
 8571SOL    HW234056   0.321   5.602   1.601  0.7981  0.2039  0.7056
 8571SOL    HW334057   0.327   5.515   1.725 -0.5145  0.0125  0.6426
 8571SOL    MW434058   0.296   5.531   1.645 -0.0966  0.3366 -0.1080
 8572SOL     OW34059   2.992   5.856   3.578 -0.7780  0.7533  0.5885
 8572SOL    HW234060   3.073   5.874   3.532 -2.3153 -0.0571 -2.7485
 8572SOL    HW334061   2.993   5.761   3.592 -1.2100  0.7122  0.3587
 8572SOL    MW434062   3.003   5.846   3.574 -0.1118  0.4620 -0.4420
 8573SOL     OW34063   1.859   0.922   0.366  0.0357 -0.1094  0.3790
 8573SOL    HW234064   1.808   0.998   0.338  1.8566  1.2969  0.6941
 8573SOL    HW334065   1.841   0.914   0.460 -1.1323 -0.8828  0.1083
 8573SOL    MW434066   1.850   0.931   0.375  0.0007 -0.1079  0.2145
 8574SOL     OW34067   6.018   0.220   3.043  0.3017 -0.1391 -0.0306
 8574SOL    HW234068   6.002   0.125   3.039  0.0935 -0.0702 -1.0584
 8574SOL    HW334069   6.026   0.247   2.952 -1.7401  1.1809  0.1189
 8574SOL    MW434070   6.017   0.211   3.030  0.6032  0.2295  0.0350
 8575SOL     OW34071   5.841   5.704   4.225 -0.0292 -0.0945  0.3065
 8575SOL    HW234072   5.844   5.800   4.223  0.0268 -0.0729  1.0745
 8575SOL    HW334073   5.779   5.680   4.157 -0.3435  0.5086  0.3747
 8575SOL    MW434074   5.833   5.714   4.216  0.0472 -0.4687  0.8735
 8576SOL     OW34075   2.752   5.978   6.209  0.1308  0.3246  0.2795
 8576SOL    HW234076   2.814   6.048   6.192 -1.7791  2.0749  0.1014
 8576SOL    HW334077   2.706   6.005   6.289  0.1748 -1.3484  0.9050
 8576SOL    MW434078   2.754   5.991   6.217 -0.5414  0.0988 -0.0726
 8577SOL     OW34079   5.226   1.830   2.248 -0.0201  0.0656  0.2689
 8577SOL    HW234080   5.192   1.763   2.307  2.3840 -1.4167  0.1025
 8577SOL    HW334081   5.304   1.863   2.292 -0.1458  1.4675 -0.5083
 8577SOL    MW434082   5.232   1.826   2.261 -0.3616  0.1430 -0.6641
 8578SOL     OW34083   1.305   1.488   6.085  0.3239 -0.6528  0.0643
 8578SOL    HW234084   1.326   1.403   6.047  1.3372 -0.2093 -0.3956
 8578SOL    HW334085   1.210   1.486   6.098  0.4973 -2.4579  1.5501
 8578SOL    MW434086   1.295   1.476   6.082 -0.0305 -0.4845  0.0327
 8579SOL     OW34087   1.131   6.088   2.286 -0.3810 -0.2038 -0.1444
 8579SOL    HW234088   1.072   6.063   2.357  0.5194 -0.8510  0.3818
 8579SOL    HW334089   1.134   6.184   2.290 -0.2670 -0.2431  0.7449
 8579SOL    MW434090   1.123   6.098   2.296  0.2351  0.3711  0.6852
 8580SOL     OW34091   5.311   0.104   4.547  0.4941 -0.2822  0.0759
 8580SOL    HW234092   5.332   0.055   4.627 -1.5505 -1.8084 -0.2234
 8580SOL    HW334093   5.219   0.130   4.559  0.5569  0.5955 -1.2227
 8580SOL    MW434094   5.301   0.101   4.559 -0.2332  1.0439 -0.3573
 8581SOL     OW34095   1.658   3.510   6.293  0.1750  0.3328  0.2863
 8581SOL    HW234096   1.745   3.474   6.310 -0.3990 -0.5046  1.6439
 8581SOL    HW334097   1.618   3.518   6.379 -0.7222  1.7300 -0.2158
 8581SOL    MW434098   1.664   3.506   6.306  0.2789  0.4095 -0.0104
 8582SOL     OW34099   4.022   5.217   5.778 -0.0591  0.5282 -0.2074
 8582SOL    HW234100   4.064   5.303   5.781  0.4459  0.2795 -0.0730
 8582SOL    HW334101   4.088   5.160   5.739 -0.5455  0.2853 -0.6876
 8582SOL    MW434102   4.036   5.221   5.773  0.4655 -0.1359  0.6175
 8583SOL     OW34103   1.011   5.569   3.234 -0.8937  0.2334  0.3596
 8583SOL    HW234104   1.026   5.647   3.180 -2.5871  0.2056 -0.2068
 8583SOL    HW334105   1.099   5.533   3.249 -0.2420  1.1787 -0.9566
 8583SOL    MW434106   1.025   5.575   3.229 -0.0267  0.4587  0.2632
 8584SOL     OW34107   6.251   5.018   5.615  0.0810  0.0034  0.3718
 8584SOL    HW234108   6.222   4.927   5.602  0.2850  0.2241 -2.0765
 8584SOL    HW334109   6.221   5.064   5.536  1.4634  1.6807  0.7718
 8584SOL    MW434110   6.243   5.012   5.603 -0.3658  0.0293 -0.7211
 8585SOL     OW34111   4.035   2.202   6.232  1.1510  0.2191  0.4340
 8585SOL    HW234112   4.061   2.258   6.158  1.2306 -0.2858  0.0693
 8585SOL    HW334113   3.941   2.190   6.220  1.2367 -0.2190  0.1553
 8585SOL    MW434114   4.026   2.208   6.220  0.2878 -0.2048  0.6168
 8586SOL     OW34115   2.548   3.530   2.516 -0.2150  0.4104  0.5751
 8586SOL    HW234116   2.519   3.439   2.525  1.0599 -0.0224  0.5396
 8586SOL    HW334117   2.468   3.581   2.508 -0.9354 -0.7566  0.2222
 8586SOL    MW434118   2.534   3.525   2.516  0.1826  0.6385  0.3336
 8587SOL     OW34119   4.034   5.791   0.818  0.1356  0.5167 -0.4327
 8587SOL    HW234120   4.127   5.780   0.802  0.0621 -0.7770 -0.0921
 8587SOL    HW334121   4.011   5.873   0.774  1.0670 -0.0367 -2.0166
 8587SOL    MW434122   4.043   5.800   0.810 -0.1602 -0.2645  0.0056
 8588SOL     OW34123   2.913   3.148   5.075 -0.1465  0.0269 -0.2240
 8588SOL    HW234124   2.967   3.153   4.997  0.3041 -0.0715  0.0795
 8588SOL    HW334125   2.944   3.070   5.121 -0.6915 -0.1545 -0.1547
 8588SOL    MW434126   2.924   3.138   5.071  0.1567  0.2411 -0.4855
 8589SOL     OW34127   3.712   5.936   0.420 -0.7770  0.4976  0.0339
 8589SOL    HW234128   3.665   6.008   0.378 -0.2959  1.9096  1.8310
 8589SOL    HW334129   3.804   5.949   0.394 -0.7299  0.3376  0.1187
 8589SOL    MW434130   3.718   5.947   0.411  0.1784 -0.4866 -0.3194
 8590SOL     OW34131   1.054   1.633   4.671 -0.0703 -0.0655 -0.0287
 8590SOL    HW234132   0.980   1.644   4.731  0.4176 -0.3503  0.6376
 8590SOL    HW334133   1.063   1.718   4.628 -0.2016  0.2529  0.5651
 8590SOL    MW434134   1.045   1.645   4.674  0.1184  0.3219  1.1742
 8591SOL     OW34135   1.600   4.038   3.663  0.8489  0.3282  0.2264
 8591SOL    HW234136   1.647   3.960   3.634 -0.8594  0.4330 -3.3032
 8591SOL    HW334137   1.557   4.011   3.744 -0.8680 -3.0431 -1.5862
 8591SOL    MW434138   1.600   4.024   3.670 -0.4204  0.5458 -0.0157
 8592SOL     OW34139   5.237   2.829   0.361 -0.2422  0.5137  0.2767
 8592SOL    HW234140   5.296   2.836   0.285  0.9422 -0.4352  1.0703
 8592SOL    HW334141   5.222   2.735   0.371  2.3490  0.2367  3.1427
 8592SOL    MW434142   5.243   2.818   0.352 -0.5082  0.7122 -0.0344
 8593SOL     OW34143   1.857   2.339   1.303  0.1916 -0.6354 -0.5467
 8593SOL    HW234144   1.892   2.426   1.286  1.0602 -0.6151  1.2121
 8593SOL    HW334145   1.765   2.346   1.278  0.2120  0.8146 -0.3236
 8593SOL    MW434146   1.849   2.351   1.297 -0.0450 -0.1675 -1.5523
 8594SOL     OW34147   5.404   3.176   1.136  0.0445  0.0835  0.3413
 8594SOL    HW234148   5.377   3.266   1.119 -1.3516 -0.2344  0.7498
 8594SOL    HW334149   5.322   3.128   1.151  0.4379 -1.9369 -2.8691
 8594SOL    MW434150   5.389   3.181   1.136 -0.2373 -0.0846  0.0117
 8595SOL     OW34151   3.112   3.091   3.600  0.0644 -0.0174  0.2505
 8595SOL    HW234152   3.189   3.069   3.548  0.7474  1.3661  0.6230
 8595SOL    HW334153   3.072   3.165   3.554  0.3374  0.8333  1.3420
 8595SOL    MW434154   3.117   3.098   3.587 -0.2849 -0.1079 -0.0852
 8596SOL     OW34155   0.428   6.181   0.083  0.2675  0.2390 -0.4614
 8596SOL    HW234156   0.447   6.110   0.143  2.8927  0.7233 -0.6270
 8596SOL    HW334157   0.496   6.245   0.098 -0.4219  1.4866 -2.2467
 8596SOL    MW434158   0.439   6.180   0.093 -0.2058 -0.0488  0.2065
 8597SOL     OW34159   4.013   4.062   2.748  0.4243  0.1890 -0.2239
 8597SOL    HW234160   4.058   4.143   2.724  1.1317 -0.0300  0.3455
 8597SOL    HW334161   3.936   4.060   2.692  0.3904  1.2689 -0.2285
 8597SOL    MW434162   4.009   4.072   2.737  0.2417  0.0361  0.3393
 8598SOL     OW34163   3.117   0.349   3.540 -0.3034 -0.8572 -0.2703
 8598SOL    HW234164   3.184   0.298   3.493 -1.5656 -2.1798 -0.7005
 8598SOL    HW334165   3.087   0.291   3.610 -0.8512 -0.1876  0.0630
 8598SOL    MW434166   3.122   0.334   3.543  0.0974  0.6969 -0.1153
 8599SOL     OW34167   0.716   6.253   5.080  0.1124  0.4843  0.5479
 8599SOL    HW234168   0.775   6.233   5.153  1.0303  2.1687  0.3213
 8599SOL    HW334169   0.710   6.171   5.030  1.0932 -0.1209  1.3840
 8599SOL    MW434170   0.723   6.240   5.083  0.4051 -0.7322 -0.2599
 8600SOL     OW34171   6.172   6.130   0.033 -0.1162 -0.4032  0.3768
 8600SOL    HW234172   6.162   6.081   0.115 -1.4759 -2.1198 -0.7417
 8600SOL    HW334173   6.260   6.107   0.002 -0.8808 -2.6792 -0.3670
 8600SOL    MW434174   6.182   6.120   0.040  0.5101  0.8803 -0.4607
 8601SOL     OW34175   2.348   1.701   3.181 -0.0828 -0.2161  0.7895
 8601SOL    HW234176   2.395   1.665   3.106 -0.0474  1.6058 -0.1131
 8601SOL    HW334177   2.406   1.769   3.216 -0.9251  0.2855  1.2484
 8601SOL    MW434178   2.362   1.705   3.176  0.4149 -0.2906  0.4551
 8602SOL     OW34179   6.000   5.676   5.335 -0.2648 -0.3604 -0.3778
 8602SOL    HW234180   6.032   5.756   5.377 -0.8374 -0.6109  0.5562
 8602SOL    HW334181   6.069   5.652   5.273 -0.1129  0.8852 -0.7191
 8602SOL    MW434182   6.013   5.683   5.332  1.0356  0.3394  0.0796
 8603SOL     OW34183   5.485   2.337   1.606  0.3796  0.8698 -0.3701
 8603SOL    HW234184   5.469   2.269   1.539 -0.9950  1.5851 -0.8150
 8603SOL    HW334185   5.481   2.290   1.689 -1.9162  0.5531 -0.5857
 8603SOL    MW434186   5.482   2.322   1.608  0.3283 -0.3354  0.5707
 8604SOL     OW34187   4.175   3.300   0.173  0.3738 -0.5885  0.0135
 8604SOL    HW234188   4.190   3.284   0.080  0.5265 -0.3795 -0.0002
 8604SOL    HW334189   4.246   3.359   0.198 -2.3150  3.4709 -0.8806
 8604SOL    MW434190   4.186   3.305   0.164  0.7472  0.3325 -0.6164
 8605SOL     OW34191   3.908   3.491   2.021 -0.0988 -0.1396 -0.5166
 8605SOL    HW234192   3.977   3.542   2.065  1.0520 -2.6709  0.8523
 8605SOL    HW334193   3.956   3.426   1.970 -1.4804 -0.6365 -1.2230
 8605SOL    MW434194   3.924   3.489   2.020 -0.0784  0.3073 -0.0181
 8606SOL     OW34195   0.338   3.234   2.938 -0.0519  0.2863 -0.5692
 8606SOL    HW234196   0.415   3.227   2.882 -0.1285 -0.7383 -0.5538
 8606SOL    HW334197   0.362   3.300   3.003  0.1864  1.1978 -1.5571
 8606SOL    MW434198   0.351   3.242   2.939  0.1549  1.1854  0.3009
 8607SOL     OW34199   3.146   5.064   6.362  0.1578  0.2388  0.4727
 8607SOL    HW234200   3.112   4.977   6.339 -1.7792  1.2367 -0.6821
 8607SOL    HW334201   3.091   5.125   6.312  1.4067  2.1434  1.3309
 8607SOL    MW434202   3.134   5.060   6.352 -0.1644 -0.0707  0.4248
 8608SOL     OW34203   3.916   2.818   4.543 -0.0443 -0.0828 -0.2713
 8608SOL    HW234204   3.887   2.808   4.634  0.1794  1.1091 -0.0516
 8608SOL    HW334205   4.012   2.824   4.549  0.0618 -1.0933 -0.7065
 8608SOL    MW434206   3.925   2.818   4.556  0.3958  0.1369  0.0691
 8609SOL     OW34207   3.332   6.336   3.470  0.2172 -0.7046 -0.5591
 8609SOL    HW234208   3.258   6.276   3.459  0.1456 -0.7960  0.3270
 8609SOL    HW334209   3.376   6.305   3.549 -1.2734  1.8780  1.4441
 8609SOL    MW434210   3.328   6.324   3.479 -0.2171  0.1452  0.5157
 8610SOL     OW34211   1.260   0.124   4.978 -0.1466  0.1567 -0.0826
 8610SOL    HW234212   1.216   0.039   4.980  0.7705 -0.3934 -1.5582
 8610SOL    HW334213   1.268   0.144   4.885  1.2625  1.0022  0.1901
 8610SOL    MW434214   1.255   0.115   4.966 -0.3191  0.0081 -0.0233
 8611SOL     OW34215   1.063   2.604   4.504 -0.2452 -0.2371 -0.4802
 8611SOL    HW234216   1.108   2.520   4.509 -0.6633 -0.4227  0.4856
 8611SOL    HW334217   1.125   2.667   4.542 -0.4514 -0.3463  0.0483
 8611SOL    MW434218   1.077   2.601   4.509  0.1088 -0.1148 -0.4527
 8612SOL     OW34219   1.198   5.906   1.997 -0.3669 -0.1769 -1.1132
 8612SOL    HW234220   1.169   5.854   2.072  2.9266  0.5690  0.8863
 8612SOL    HW334221   1.263   5.851   1.952  1.0178  1.0051 -0.6652
 8612SOL    MW434222   1.203   5.892   2.001  0.0042 -0.2510 -0.5252
 8613SOL     OW34223   6.330   3.903   5.817  0.3531  0.5235  0.4283
 8613SOL    HW234224   6.297   3.984   5.855  1.8200  0.9721  0.8019
 8613SOL    HW334225   6.329   3.840   5.889 -0.1388  0.4011  0.3151
 8613SOL    MW434226   6.326   3.905   5.831  0.8567 -0.6611 -0.1311
 8614SOL     OW34227   5.626   3.534   1.220 -0.1446 -0.4412  0.2408
 8614SOL    HW234228   5.683   3.594   1.172 -1.0859 -0.2203 -0.6509
 8614SOL    HW334229   5.682   3.460   1.244  0.3071 -0.7180 -1.5312
 8614SOL    MW434230   5.641   3.532   1.217  0.2345 -0.2158 -0.7119
 8615SOL     OW34231   5.797   5.473   0.586  0.2844  0.1917 -0.4478
 8615SOL    HW234232   5.864   5.413   0.551 -1.1813 -0.7866 -1.7369
 8615SOL    HW334233   5.819   5.558   0.548  1.0408 -0.0106 -0.4917
 8615SOL    MW434234   5.809   5.476   0.576 -0.3868 -0.6121 -0.2697
 8616SOL     OW34235   1.998   3.308   4.715 -0.1620 -0.2038 -0.0186
 8616SOL    HW234236   1.947   3.262   4.648  1.4226 -1.2868 -0.5324
 8616SOL    HW334237   1.955   3.393   4.723 -1.5505 -0.7697 -0.9974
 8616SOL    MW434238   1.985   3.313   4.707 -0.1932 -0.3708  0.4161
 8617SOL     OW34239   4.528   4.234   4.454  0.4992 -0.6153 -0.4395
 8617SOL    HW234240   4.527   4.325   4.424 -1.9775 -0.8815 -1.4246
 8617SOL    HW334241   4.499   4.240   4.546  3.1762 -0.2352  0.4615
 8617SOL    MW434242   4.524   4.247   4.462 -0.1616  0.3315  0.2578
 8618SOL     OW34243   0.572   4.509   4.356  0.2004  0.1285  0.4396
 8618SOL    HW234244   0.583   4.597   4.319  0.4461 -0.1701 -0.2155
 8618SOL    HW334245   0.541   4.524   4.445 -0.0312  0.8735  0.2395
 8618SOL    MW434246   0.570   4.523   4.362 -0.0509 -0.1036 -0.4184
 8619SOL     OW34247   1.669   2.010   5.191  0.3063  0.0416  0.1651
 8619SOL    HW234248   1.629   2.014   5.278 -0.6504 -0.2623 -0.2457
 8619SOL    HW334249   1.728   1.934   5.196 -0.1325 -0.2879  0.3909
 8619SOL    MW434250   1.672   2.000   5.203  0.2469 -0.0588  0.0913
 8620SOL     OW34251   5.811   5.626   3.625  0.1046  0.1414  0.3857
 8620SOL    HW234252   5.811   5.719   3.600  1.1287 -0.0272 -0.3138
 8620SOL    HW334253   5.836   5.627   3.718 -0.7455  0.6011  0.6213
 8620SOL    MW434254   5.814   5.639   3.634 -0.2485 -0.3949 -0.4272
 8621SOL     OW34255   1.120   0.965   5.444 -0.6977 -0.7148  0.0431
 8621SOL    HW234256   1.051   0.899   5.429  0.8817 -2.4338  0.0089
 8621SOL    HW334257   1.124   1.014   5.362 -1.8011 -0.6526  0.0066
 8621SOL    MW434258   1.111   0.963   5.431  0.0006  0.4353 -0.2904
 8622SOL     OW34259   2.382   2.173   5.718  0.5797 -0.0032  0.1942
 8622SOL    HW234260   2.456   2.159   5.777  0.9609 -0.9936 -0.4976
 8622SOL    HW334261   2.421   2.181   5.631  0.0042  1.2203  0.0224
 8622SOL    MW434262   2.397   2.172   5.715  0.1598  0.4537  0.5751
 8623SOL     OW34263   2.070   5.129   1.085  0.3008 -0.1131 -0.0656
 8623SOL    HW234264   2.009   5.152   1.155  0.8706  0.0117  0.4020
 8623SOL    HW334265   2.121   5.057   1.121  0.9646  0.3083 -0.1461
 8623SOL    MW434266   2.069   5.122   1.099 -0.0642 -0.1433 -0.0535
 8624SOL     OW34267   5.215   6.356   2.818 -0.7979 -0.1438  0.2218
 8624SOL    HW234268   5.293   6.411   2.806  0.1099 -1.5091 -0.4110
 8624SOL    HW334269   5.189   6.332   2.729  0.2757 -2.6564  0.5196
 8624SOL    MW434270   5.222   6.360   2.805 -0.1260 -0.1688  0.5145
 8625SOL     OW34271   6.107   2.674   2.963 -0.0579 -0.2489  0.4579
 8625SOL    HW234272   6.086   2.716   2.880 -1.1330 -2.0435 -0.2171
 8625SOL    HW334273   6.193   2.708   2.986  1.5335 -1.6968 -2.7590
 8625SOL    MW434274   6.116   2.684   2.955 -0.0034 -0.3497  0.0299
 8626SOL     OW34275   2.007   5.663   2.461  0.1108  0.6265 -0.4434
 8626SOL    HW234276   1.961   5.579   2.457 -0.5378  0.9340  0.2152
 8626SOL    HW334277   2.021   5.687   2.370 -1.5028  0.7621 -0.6736
 8626SOL    MW434278   2.003   5.655   2.449 -0.3646 -0.3934  0.3438
 8627SOL     OW34279   4.932   1.031   5.153 -0.1016 -0.1762 -0.6427
 8627SOL    HW234280   4.920   0.986   5.236 -0.2003  1.1001  0.0669
 8627SOL    HW334281   4.856   1.089   5.146  0.1700  0.1025 -1.3788
 8627SOL    MW434282   4.920   1.033   5.163 -0.3373 -0.4551  0.3217
 8628SOL     OW34283   5.830   4.538   4.504  0.4582 -0.0409  0.1962
 8628SOL    HW234284   5.790   4.528   4.590  2.6603 -0.5416  1.2240
 8628SOL    HW334285   5.921   4.563   4.522  1.2589 -1.1618 -1.9406
 8628SOL    MW434286   5.837   4.540   4.518 -0.0125  0.3865  0.2073
 8629SOL     OW34287   5.933   4.119   3.549 -0.6115 -0.2511 -0.3561
 8629SOL    HW234288   5.926   4.130   3.644 -3.2519 -1.6131 -0.2947
 8629SOL    HW334289   5.973   4.200   3.518  0.7486  0.0357  1.9415
 8629SOL    MW434290   5.937   4.131   3.558 -0.9800 -0.5754 -0.0596
 8630SOL     OW34291   5.655   3.763   4.572 -0.4233 -0.0319  0.4927
 8630SOL    HW234292   5.596   3.827   4.613  1.3741  1.8078  0.3717
 8630SOL    HW334293   5.599   3.690   4.550 -2.7806  1.8231 -0.0883
 8630SOL    MW434294   5.640   3.762   4.575  0.3425 -0.6108  0.3924
 8631SOL     OW34295   4.523   6.414   6.293 -0.0007  0.3000  0.5744
 8631SOL    HW234296   4.551   6.461   6.371  0.9860 -0.2351  0.5527
 8631SOL    HW334297   4.571   6.457   6.221  1.0823 -0.8494  0.5803
 8631SOL    MW434298   4.533   6.426   6.294 -0.5304  0.1227  0.1581
 8632SOL     OW34299   3.620   1.096   2.504 -0.0469  0.0424 -0.0087
 8632SOL    HW234300   3.625   1.004   2.479  1.3676 -0.6022  2.3245
 8632SOL    HW334301   3.646   1.144   2.425 -2.5292 -1.3700 -1.8314
 8632SOL    MW434302   3.624   1.090   2.490  0.1651 -0.2782  0.1545
 8633SOL     OW34303   0.646   2.178   3.145  0.1366  0.0878  0.5153
 8633SOL    HW234304   0.558   2.142   3.153 -0.1182  0.2192 -1.3103
 8633SOL    HW334305   0.700   2.122   3.201 -1.1887  0.4970  2.3292
 8633SOL    MW434306   0.642   2.166   3.154  0.8782 -0.3093 -0.2567
 8634SOL     OW34307   4.155   4.592   0.069  0.5356 -0.0310 -0.0230
 8634SOL    HW234308   4.098   4.666   0.087 -0.1909 -0.8495  1.2285
 8634SOL    HW334309   4.184   4.563   0.156  2.7235  0.2359 -0.6065
 8634SOL    MW434310   4.152   4.598   0.083  0.5575  0.4293 -0.5835
 8635SOL     OW34311   2.617   5.938   1.296 -0.2337 -0.2487 -0.4727
 8635SOL    HW234312   2.586   5.893   1.375 -1.8912  1.3304 -0.1615
 8635SOL    HW334313   2.545   5.931   1.234 -0.4959  1.7744 -0.4635
 8635SOL    MW434314   2.603   5.931   1.298  0.2685  0.6001 -0.3447
 8636SOL     OW34315   2.398   6.291   3.723 -0.1163  0.2640 -0.2833
 8636SOL    HW234316   2.474   6.239   3.750  0.8187  0.7025 -1.9230
 8636SOL    HW334317   2.392   6.360   3.790  1.2463  0.5022 -0.3720
 8636SOL    MW434318   2.408   6.293   3.736 -0.3007  0.2571  0.3857
 8637SOL     OW34319   6.324   3.916   5.356 -0.3473 -0.1741  0.2089
 8637SOL    HW234320   6.377   3.859   5.301 -0.6047 -0.9305  0.7318
 8637SOL    HW334321   6.386   3.979   5.393 -0.2667  0.7852 -1.4517
 8637SOL    MW434322   6.339   3.917   5.354 -0.1880  0.0157 -0.1496
 8638SOL     OW34323   3.123   0.560   1.926  0.5999  0.0543  0.0086
 8638SOL    HW234324   3.173   0.584   1.848 -0.7272  3.2683  0.0065
 8638SOL    HW334325   3.170   0.601   1.998 -0.4124  0.6455  0.3554
 8638SOL    MW434326   3.136   0.568   1.925  0.0717  0.8686  0.1665
 8639SOL     OW34327   1.628   2.213   2.107  0.2574  0.1800  0.1802
 8639SOL    HW234328   1.652   2.127   2.073 -0.1651 -0.2462  0.9253
 8639SOL    HW334329   1.707   2.245   2.151  1.4479  1.5808 -2.7401
 8639SOL    MW434330   1.641   2.206   2.109 -0.3511 -0.4181  0.2176
 8640SOL     OW34331   2.702   4.190   2.599 -0.0093  1.1855  0.1645
 8640SOL    HW234332   2.648   4.174   2.677 -0.6429 -2.2898 -0.8198
 8640SOL    HW334333   2.638   4.217   2.532 -0.1547 -0.0961 -0.2388
 8640SOL    MW434334   2.686   4.192   2.601  0.1278 -0.0185 -0.0989
 8641SOL     OW34335   3.006   1.881   4.209  0.0773 -0.4532 -0.3901
 8641SOL    HW234336   3.055   1.947   4.260  1.5471 -0.8228 -1.2613
 8641SOL    HW334337   3.070   1.811   4.195 -0.6012 -0.7991 -1.8848
 8641SOL    MW434338   3.021   1.881   4.214  0.0362 -0.0379  0.0061
 8642SOL     OW34339   1.247   4.544   0.923 -0.5525 -0.0943  0.9698
 8642SOL    HW234340   1.205   4.598   0.990  0.4906 -0.2292  1.7597
 8642SOL    HW334341   1.295   4.606   0.868 -1.4763  0.0252  0.2758
 8642SOL    MW434342   1.248   4.559   0.925  0.0476 -0.2689  0.2608
 8643SOL     OW34343   6.344   6.123   5.495 -0.0498  0.3277 -0.1512
 8643SOL    HW234344   6.430   6.160   5.473  0.0893  1.2339  1.6982
 8643SOL    HW334345   6.329   6.056   5.428  1.8568  0.5071 -0.8294
 8643SOL    MW434346   6.354   6.119   5.483 -0.3377 -0.4263 -0.0597
 8644SOL     OW34347   4.730   6.423   1.496  0.4751 -0.1392  0.1929
 8644SOL    HW234348   4.767   6.511   1.511  1.7666 -0.8825  1.7300
 8644SOL    HW334349   4.683   6.404   1.578 -0.9330 -0.3831 -0.6442
 8644SOL    MW434350   4.729   6.432   1.509  0.0955 -0.2531 -0.2772
 8645SOL     OW34351   3.742   3.116   6.191 -0.4635  0.3044  0.0647
 8645SOL    HW234352   3.791   3.179   6.245  1.8036 -0.7511 -0.6174
 8645SOL    HW334353   3.682   3.074   6.252 -1.5045  2.5317  0.6944
 8645SOL    MW434354   3.741   3.119   6.206  0.0819  0.1251 -0.3443
 8646SOL     OW34355   4.445   5.636   4.457 -0.1721 -0.3970 -0.2502
 8646SOL    HW234356   4.477   5.717   4.496 -0.0636  0.3812 -1.8556
 8646SOL    HW334357   4.502   5.568   4.491  0.8200  0.4468 -0.1898
 8646SOL    MW434358   4.456   5.638   4.467  0.1078  1.1623  0.0142
 8647SOL     OW34359   1.536   4.672   5.926 -0.6844 -0.1373  0.0770
 8647SOL    HW234360   1.608   4.626   5.969 -0.7557  0.3808  0.7584
 8647SOL    HW334361   1.512   4.614   5.853  0.3941 -0.3300 -0.1521
 8647SOL    MW434362   1.542   4.658   5.922 -0.0426  0.2508 -0.4929
 8648SOL     OW34363   1.785   3.024   5.676 -0.2602  0.8548 -0.2224
 8648SOL    HW234364   1.704   2.986   5.642 -0.2143  0.7671 -0.2343
 8648SOL    HW334365   1.817   2.960   5.739 -0.2349  0.9203 -0.1683
 8648SOL    MW434366   1.779   3.011   5.679 -0.2079  0.2293  0.0568
 8649SOL     OW34367   4.765   4.714   2.243  0.6282  0.2579 -0.4252
 8649SOL    HW234368   4.808   4.630   2.256 -0.8003 -0.7394 -1.8189
 8649SOL    HW334369   4.719   4.705   2.160 -1.1626  1.7366  0.3483
 8649SOL    MW434370   4.765   4.702   2.234 -0.0962 -0.1492  0.4527
 8650SOL     OW34371   0.881   2.882   1.984  0.4036 -0.3647  0.3275
 8650SOL    HW234372   0.804   2.931   1.956  0.4714 -0.2408  0.3565
 8650SOL    HW334373   0.922   2.852   1.903  0.9064  0.4624  0.2682
 8650SOL    MW434374   0.876   2.884   1.970 -0.1353 -0.2260 -0.1657
 8651SOL     OW34375   3.388   3.735   1.239 -0.2815  0.1987  0.0795
 8651SOL    HW234376   3.335   3.810   1.266 -0.8823 -0.6753  1.4019
 8651SOL    HW334377   3.344   3.659   1.277  1.1916 -0.6846  0.0881
 8651SOL    MW434378   3.375   3.735   1.248  0.5327  0.0197 -0.2243
 8652SOL     OW34379   1.888   1.087   0.025 -0.1193 -0.0847  0.1415
 8652SOL    HW234380   1.915   1.025  -0.044 -0.9673 -0.5944  0.2454
 8652SOL    HW334381   1.962   1.090   0.085  0.4860  0.0762 -0.5881
 8652SOL    MW434382   1.901   1.079   0.024 -0.0478  0.1952 -0.1381
 8653SOL     OW34383   4.827   0.707   3.498  0.1478  0.3856 -0.6219
 8653SOL    HW234384   4.902   0.696   3.557 -0.3979  0.5141  0.1242
 8653SOL    HW334385   4.863   0.748   3.420  0.5112  2.5149  0.5837
 8653SOL    MW434386   4.842   0.711   3.496  0.4014 -0.6295  0.1063
 8654SOL     OW34387   4.009   1.779   4.654  0.1002  0.0446 -0.7959
 8654SOL    HW234388   4.060   1.736   4.585  1.5133  0.3881 -0.0100
 8654SOL    HW334389   4.005   1.714   4.725  1.8937  0.9802  0.2339
 8654SOL    MW434390   4.015   1.765   4.654  0.5110 -0.0568 -0.0389
 8655SOL     OW34391   3.855   2.840   4.845  0.0840  0.0358  0.2686
 8655SOL    HW234392   3.928   2.839   4.908 -1.1672  0.7363  1.7869
 8655SOL    HW334393   3.830   2.932   4.840 -0.5607 -0.1741 -0.4156
 8655SOL    MW434394   3.862   2.852   4.853  0.8795 -0.5800  0.3502
 8656SOL     OW34395   2.938   2.075   2.811  0.4524 -0.2534  0.3951
 8656SOL    HW234396   2.942   2.146   2.875  0.9954  1.5275 -1.4994
 8656SOL    HW334397   2.847   2.077   2.779  0.4147 -0.5703  0.4728
 8656SOL    MW434398   2.926   2.084   2.815 -0.1219 -0.3444  0.3659
 8657SOL     OW34399   4.725   0.770   0.024 -0.1938 -0.5961  0.2836
 8657SOL    HW234400   4.774   0.851   0.011 -2.3883  1.0064  1.2052
 8657SOL    HW334401   4.745   0.717  -0.052  1.9517  0.4625  0.0444
 8657SOL    MW434402   4.734   0.774   0.013  0.1326  0.0385  0.0807
 8658SOL     OW34403   4.326   0.177   6.231 -0.2807 -0.3351  0.2912
 8658SOL    HW234404   4.359   0.267   6.225 -0.4570 -0.1528  1.6048
 8658SOL    HW334405   4.404   0.124   6.249 -0.1503 -0.4822 -0.6664
 8658SOL    MW434406   4.341   0.182   6.233  0.4347  0.0358 -0.0629
 8659SOL     OW34407   2.848   3.868   3.060 -0.2416 -0.5982  0.1373
 8659SOL    HW234408   2.856   3.840   2.969  0.6871 -3.4159  0.9911
 8659SOL    HW334409   2.919   3.930   3.072 -0.2368 -0.3561 -0.9810
 8659SOL    MW434410   2.858   3.872   3.049  0.1262 -0.3928 -0.5072
 8660SOL     OW34411   0.786   2.202   2.676 -0.1767  0.0788 -0.4892
 8660SOL    HW234412   0.777   2.107   2.670  0.5968  0.0808 -2.2549
 8660SOL    HW334413   0.842   2.226   2.602  1.4309  1.6830  1.1376
 8660SOL    MW434414   0.792   2.193   2.665 -0.0536  0.0953  0.6557
 8661SOL     OW34415   2.007   3.327   0.751  0.2753 -0.2482 -0.8040
 8661SOL    HW234416   2.031   3.390   0.684 -0.6046 -0.9406 -1.7973
 8661SOL    HW334417   2.066   3.346   0.824  0.7242  1.0226 -1.4691
 8661SOL    MW434418   2.018   3.338   0.752 -0.0700 -0.5684  0.0108
 8662SOL     OW34419   5.820   3.345   1.291 -0.8478  0.0442 -0.5650
 8662SOL    HW234420   5.853   3.339   1.202  0.8459 -2.1117  0.1110
 8662SOL    HW334421   5.771   3.263   1.304  0.8977 -0.8105  1.1356
 8662SOL    MW434422   5.818   3.333   1.281 -0.4192  0.0305  0.0238
 8663SOL     OW34423   4.647   0.636   3.090 -0.0580 -0.1534  0.6499
 8663SOL    HW234424   4.558   0.641   3.126 -0.6324 -0.7636 -0.6174
 8663SOL    HW334425   4.659   0.544   3.069  0.5586  0.0659  0.0178
 8663SOL    MW434426   4.637   0.625   3.092 -0.4510 -0.0878  0.1004
 8664SOL     OW34427   3.303   1.712   0.486  0.6416 -0.6192 -0.0633
 8664SOL    HW234428   3.379   1.657   0.465  1.1265 -0.0573  0.2096
 8664SOL    HW334429   3.294   1.707   0.581 -1.1716 -2.6493 -0.2644
 8664SOL    MW434430   3.312   1.704   0.495 -0.0529 -0.3741  0.2613
 8665SOL     OW34431   1.087   0.953   2.063 -0.2950 -0.9617 -0.4427
 8665SOL    HW234432   1.059   0.927   2.151 -1.4413 -1.1811 -0.8694
 8665SOL    HW334433   1.102   0.871   2.017 -0.9852 -0.8578 -0.8604
 8665SOL    MW434434   1.086   0.939   2.069 -0.2677  0.5141 -0.4718
 8666SOL     OW34435   3.673   4.978   1.506 -0.3300 -0.3648  0.0548
 8666SOL    HW234436   3.668   5.073   1.496  1.8807 -0.3761 -1.9429
 8666SOL    HW334437   3.593   4.945   1.465 -0.8525  0.5945  0.2789
 8666SOL    MW434438   3.662   4.986   1.500 -0.5985 -0.1938  0.6964
 8667SOL     OW34439   3.291   3.685   6.203  0.1000 -0.2708  0.1984
 8667SOL    HW234440   3.258   3.598   6.179  0.1367 -0.8613  2.0438
 8667SOL    HW334441   3.372   3.666   6.252 -0.0451  0.7841  0.8659
 8667SOL    MW434442   3.298   3.671   6.207 -0.2103  0.5045 -0.3504
 8668SOL     OW34443   0.015   4.779   3.924  0.4180  0.2470  0.4283
 8668SOL    HW234444  -0.033   4.698   3.939  2.4420 -1.1708 -0.2232
 8668SOL    HW334445   0.105   4.750   3.904  0.8518  2.5576 -1.4586
 8668SOL    MW434446   0.021   4.765   3.923 -0.2322  0.0871  0.7638
 8669SOL     OW34447   1.345   0.400   6.273 -0.2677 -0.1920  0.5685
 8669SOL    HW234448   1.390   0.428   6.193  0.0561 -0.2492  0.7293
 8669SOL    HW334449   1.377   0.460   6.341 -1.2812  0.4945  0.4700
 8669SOL    MW434450   1.355   0.412   6.271  0.2072 -0.4015 -0.1690
 8670SOL     OW34451   3.519   2.140   0.899  0.4946  0.0886 -0.3118
 8670SOL    HW234452   3.495   2.053   0.867 -0.5034 -0.9739  2.9333
 8670SOL    HW334453   3.606   2.129   0.937  1.0277  0.9361 -1.2331
 8670SOL    MW434454   3.527   2.127   0.900 -0.0615 -0.1409  0.4609
 8671SOL     OW34455   5.044   5.925   2.982 -0.1203  0.3535 -0.2096
 8671SOL    HW234456   5.127   5.962   2.953 -0.2577  0.4605 -0.4702
 8671SOL    HW334457   5.051   5.832   2.962  0.6446  0.0192  1.4067
 8671SOL    MW434458   5.056   5.917   2.976 -0.5190 -0.1854 -0.5325
 8672SOL     OW34459   3.441   6.298   6.099  0.1431  0.1374  0.2348
 8672SOL    HW234460   3.430   6.326   6.008 -0.6071  0.0491  0.2863
 8672SOL    HW334461   3.527   6.257   6.102 -0.2480 -0.7969 -0.6861
 8672SOL    MW434462   3.451   6.296   6.087 -0.3016 -0.2319 -0.4840
 8673SOL     OW34463   4.460   0.999   0.709 -0.3166  0.6141 -0.6171
 8673SOL    HW234464   4.370   1.030   0.700 -0.7302  0.7549  2.7938
 8673SOL    HW334465   4.502   1.064   0.766  1.1301 -0.8902  0.1182
 8673SOL    MW434466   4.454   1.012   0.715 -0.3853  1.1806  0.1935
 8674SOL     OW34467   1.912   2.005   3.867  0.0280  0.1314  0.3157
 8674SOL    HW234468   1.896   2.056   3.946  1.2340  0.4920  0.3543
 8674SOL    HW334469   1.968   1.933   3.895 -1.2111 -0.9324  0.1546
 8674SOL    MW434470   1.917   2.002   3.881  0.1747 -0.2407  0.2234
 8675SOL     OW34471   0.783   5.005   5.168 -0.3014 -0.1462 -0.5975
 8675SOL    HW234472   0.857   5.002   5.108  1.4563  0.0553  1.4500
 8675SOL    HW334473   0.747   5.094   5.158  2.4188  1.3074  1.3139
 8675SOL    MW434474   0.788   5.016   5.159 -0.1209  0.0242  0.2746
 8676SOL     OW34475   6.108   3.968   0.404  0.4095 -0.1574  0.3777
 8676SOL    HW234476   6.189   4.019   0.414  0.2219  0.3833 -0.7553
 8676SOL    HW334477   6.041   4.033   0.385 -0.5265 -0.4915  2.2731
 8676SOL    MW434478   6.110   3.983   0.403  0.1706  1.2210 -0.4475
 8677SOL     OW34479   1.742   5.554   5.223  0.2027 -0.1776  0.5615
 8677SOL    HW234480   1.825   5.598   5.242  0.2907  1.6302 -3.1846
 8677SOL    HW334481   1.767   5.463   5.206  1.3839  0.2462 -0.1030
 8677SOL    MW434482   1.756   5.547   5.223  0.3211 -0.1728 -0.4423
 8678SOL     OW34483   5.484   4.894   2.552  0.0888 -0.6035 -0.2321
 8678SOL    HW234484   5.500   4.804   2.523 -1.5147 -0.9979  0.0062
 8678SOL    HW334485   5.419   4.885   2.622  1.9945  0.5067  1.8300
 8678SOL    MW434486   5.477   4.881   2.558 -0.0148  0.6097  0.0970
 8679SOL     OW34487   0.860   0.616   4.179  0.3814  0.2654 -0.2649
 8679SOL    HW234488   0.809   0.539   4.203 -0.2682  1.2864  1.8320
 8679SOL    HW334489   0.795   0.677   4.144  0.5313  0.6844  0.1766
 8679SOL    MW434490   0.845   0.614   4.177 -0.4413 -0.2489 -0.0112
 8680SOL     OW34491   2.976   2.656   4.093  0.0689 -0.4447 -0.0606
 8680SOL    HW234492   2.904   2.706   4.054  0.5529  0.0988 -0.2725
 8680SOL    HW334493   2.984   2.691   4.181  0.1853 -0.3790 -0.0965
 8680SOL    MW434494   2.968   2.667   4.099  0.4379  0.0598 -0.1483
 8681SOL     OW34495   0.365   3.626   1.331  0.4483 -0.0224  0.1702
 8681SOL    HW234496   0.352   3.683   1.407 -0.3102  0.8120 -0.5619
 8681SOL    HW334497   0.325   3.543   1.357 -0.4936  0.4904  0.4274
 8681SOL    MW434498   0.358   3.623   1.345 -0.1281 -0.2512 -0.2475
 8682SOL     OW34499   5.121   1.486   1.849 -0.1282  0.5419 -0.4845
 8682SOL    HW234500   5.172   1.424   1.901  0.5663  0.8834 -0.7333
 8682SOL    HW334501   5.135   1.570   1.893 -1.1245  0.5179 -0.1050
 8682SOL    MW434502   5.130   1.489   1.862 -0.4849  0.1072 -0.0833
 8683SOL     OW34503   3.188   2.938   4.489 -0.1928 -0.3006 -0.0274
 8683SOL    HW234504   3.136   2.882   4.432  0.2235  1.9563 -2.8404
 8683SOL    HW334505   3.164   3.027   4.464  0.0907  0.8534  3.3681
 8683SOL    MW434506   3.178   2.942   4.478  0.2845 -0.0076  0.4046
 8684SOL     OW34507   2.475   5.628   5.693 -0.1959 -0.0530  0.0125
 8684SOL    HW234508   2.409   5.595   5.632  1.4704  0.3747 -2.1173
 8684SOL    HW334509   2.457   5.722   5.699 -2.5656 -0.5395  3.1110
 8684SOL    MW434510   2.464   5.636   5.686 -0.3741 -0.7126 -0.5576
 8685SOL     OW34511   0.892   2.657   5.159 -0.6525  0.1500  0.4389
 8685SOL    HW234512   0.830   2.586   5.178 -1.3256  0.4993 -0.3507
 8685SOL    HW334513   0.863   2.730   5.213  0.1154 -0.1988  1.3447
 8685SOL    MW434514   0.880   2.657   5.168  0.0794 -0.2393  0.0702
 8686SOL     OW34515   1.157   2.400   2.829 -0.4334  0.1043  0.1503
 8686SOL    HW234516   1.078   2.451   2.809 -0.2217  0.2890 -0.2247
 8686SOL    HW334517   1.219   2.424   2.760  0.1195  0.3180  0.7138
 8686SOL    MW434518   1.155   2.410   2.817 -0.4012  0.5044  0.5598
 8687SOL     OW34519   1.902   5.073   0.315 -0.1147 -0.7658 -0.6463
 8687SOL    HW234520   1.889   5.030   0.399 -2.0980  0.8308 -0.0677
 8687SOL    HW334521   1.827   5.045   0.262 -0.8840  1.0972 -0.5960
 8687SOL    MW434522   1.890   5.063   0.319 -0.0702 -0.2977  0.1967
 8688SOL     OW34523   5.774   0.335   4.360  0.1970 -0.0254 -0.6122
 8688SOL    HW234524   5.717   0.268   4.396  0.3987 -0.6847 -1.4730
 8688SOL    HW334525   5.814   0.293   4.283 -0.2258  1.3040 -1.5956
 8688SOL    MW434526   5.772   0.321   4.354  0.5059 -0.2407 -0.1204
 8689SOL     OW34527   3.924   3.372   4.513  0.0096  0.6835 -0.0543
 8689SOL    HW234528   3.994   3.369   4.447  1.2888  0.7014  1.2394
 8689SOL    HW334529   3.897   3.464   4.515  1.1718  1.0352  0.6139
 8689SOL    MW434530   3.930   3.384   4.504  0.3880 -0.7240 -0.7898
 8690SOL     OW34531   3.237   2.610   4.036 -0.1803 -0.1444 -0.7551
 8690SOL    HW234532   3.149   2.629   4.069  0.5116  1.6400  0.2327
 8690SOL    HW334533   3.288   2.588   4.114  1.2185  3.0471 -0.6008
 8690SOL    MW434534   3.232   2.610   4.051 -0.2127 -0.6087 -0.1502
 8691SOL     OW34535   0.515   2.283   2.737 -0.3941  0.1505  0.8315
 8691SOL    HW234536   0.608   2.276   2.715 -0.2067  0.2609  1.5851
 8691SOL    HW334537   0.488   2.193   2.758 -0.2514  0.2536  1.4475
 8691SOL    MW434538   0.523   2.270   2.737  0.5410 -0.0505 -0.3160
 8692SOL     OW34539   2.659   1.404   2.733 -0.4081  0.2090  0.3286
 8692SOL    HW234540   2.699   1.318   2.737 -0.8289  0.0406  1.0386
 8692SOL    HW334541   2.729   1.461   2.700  0.7849  0.1174  2.5004
 8692SOL    MW434542   2.674   1.400   2.729  0.3765 -0.0791 -0.5075
 8693SOL     OW34543   4.555   1.690   0.700 -0.1949  0.0708 -0.2707
 8693SOL    HW234544   4.646   1.662   0.693 -0.4318 -0.5672 -0.8946
 8693SOL    HW334545   4.530   1.712   0.610 -1.0526 -1.0448 -0.3164
 8693SOL    MW434546   4.564   1.689   0.687  0.2288 -0.1900 -0.7490
 8694SOL     OW34547   4.570   1.909   6.197 -0.0413  0.4281  0.6665
 8694SOL    HW234548   4.586   1.996   6.159  2.2477  0.0735  0.6791
 8694SOL    HW334549   4.476   1.898   6.192 -0.1425  1.7975 -1.8168
 8694SOL    MW434550   4.560   1.919   6.192 -0.4426 -0.4736  0.1893
 8695SOL     OW34551   1.125   1.665   5.813  0.0604  0.7692 -0.2134
 8695SOL    HW234552   1.065   1.691   5.883  0.2887  1.1103 -0.1390
 8695SOL    HW334553   1.212   1.676   5.851  0.1604 -0.9317  0.0998
 8695SOL    MW434554   1.128   1.670   5.827 -0.0538  0.3436  0.0729
 8696SOL     OW34555   5.740   0.831   3.125  0.3439 -0.8662 -0.6619
 8696SOL    HW234556   5.707   0.896   3.063 -0.5606  1.4597  2.0349
 8696SOL    HW334557   5.668   0.820   3.188  2.3876 -0.3863  1.9104
 8696SOL    MW434558   5.726   0.839   3.126 -0.0072  0.1003  0.3676
 8697SOL     OW34559   4.419   4.813   0.059  0.3933  0.2315 -0.0284
 8697SOL    HW234560   4.508   4.816   0.095 -0.2326 -1.2426  1.7892
 8697SOL    HW334561   4.429   4.770  -0.026  1.4675  0.4900 -0.0435
 8697SOL    MW434562   4.432   4.808   0.053  0.2358  0.2122 -0.2115
 8698SOL     OW34563   0.888   0.680   2.911 -0.2431  0.1070  0.4134
 8698SOL    HW234564   0.922   0.755   2.960 -0.9840  0.6257  0.1479
 8698SOL    HW334565   0.819   0.716   2.856 -0.2580 -0.6836 -0.1105
 8698SOL    MW434566   0.884   0.695   2.910  0.4611  0.6904 -0.0282
 8699SOL     OW34567   5.595   2.998   0.789  0.0455  0.0261 -0.4934
 8699SOL    HW234568   5.559   2.972   0.873  0.1623 -1.0363 -0.7626
 8699SOL    HW334569   5.529   2.971   0.725 -1.6006  3.6737 -0.5986
 8699SOL    MW434570   5.582   2.991   0.791 -0.3226 -0.0448  0.3102
 8700SOL     OW34571   3.340   2.305   1.455 -0.6683 -0.4401  0.2465
 8700SOL    HW234572   3.345   2.399   1.439 -0.5149 -0.1132  2.0428
 8700SOL    HW334573   3.321   2.267   1.369 -0.7424  1.2180 -0.5049
 8700SOL    MW434574   3.338   2.312   1.441 -0.6331 -0.4044 -0.1166
 8701SOL     OW34575   3.557   4.535   1.529 -0.1609 -0.1328 -0.3023
 8701SOL    HW234576   3.578   4.443   1.518  0.3580 -0.0694  0.1385
 8701SOL    HW334577   3.546   4.546   1.623  2.8287  0.8835  0.0246
 8701SOL    MW434578   3.558   4.525   1.540  0.2211 -0.1547  0.5435
 8702SOL     OW34579   1.995   2.030   1.672  0.2884 -0.1146 -1.3213
 8702SOL    HW234580   1.938   1.967   1.626 -1.1687  0.9412 -1.0271
 8702SOL    HW334581   1.948   2.050   1.753  0.9030  1.0669 -1.2365
 8702SOL    MW434582   1.981   2.024   1.676  0.3575  0.3942  0.2208
 8703SOL     OW34583   6.103   3.564   5.492 -0.3317 -0.0671  0.3035
 8703SOL    HW234584   6.172   3.624   5.521  0.3803 -0.0259 -1.3602
 8703SOL    HW334585   6.097   3.579   5.398  0.7511 -3.4396 -0.4172
 8703SOL    MW434586   6.112   3.574   5.483 -0.5622 -0.5583 -0.1625
 8704SOL     OW34587   3.405   1.397   3.519 -0.1729 -0.3280  0.0887
 8704SOL    HW234588   3.344   1.452   3.470  0.9802  0.6384 -0.3279
 8704SOL    HW334589   3.422   1.445   3.600  0.1279 -0.5203  0.1454
 8704SOL    MW434590   3.399   1.410   3.524  0.1007  0.2481  0.1927
 8705SOL     OW34591   2.667   3.249   4.143 -0.2090 -0.0423 -0.1089
 8705SOL    HW234592   2.740   3.197   4.111 -0.5768  0.0710 -1.1701
 8705SOL    HW334593   2.695   3.340   4.133 -0.5203  0.0033 -0.5885
 8705SOL    MW434594   2.680   3.254   4.138 -0.1288 -0.0348 -0.0094
 8706SOL     OW34595   6.019   5.059   3.500 -0.0269  0.4492  0.4863
 8706SOL    HW234596   5.936   5.018   3.524  0.0611  0.0115  0.0573
 8706SOL    HW334597   5.997   5.116   3.426 -0.0497  0.7828  0.7457
 8706SOL    MW434598   6.005   5.061   3.493  0.4074  0.2311 -0.1688
 8707SOL     OW34599   1.238   1.683   1.981  0.5810 -0.2965  0.2581
 8707SOL    HW234600   1.296   1.711   1.910  2.5756  3.0239  2.8928
 8707SOL    HW334601   1.287   1.615   2.027  1.1826  0.5208  0.8458
 8707SOL    MW434602   1.252   1.678   1.978  0.0529 -0.1368 -0.1504
 8708SOL     OW34603   1.143   4.391   3.078  0.1126 -0.3923 -0.5998
 8708SOL    HW234604   1.138   4.402   3.173 -1.9309 -2.9282 -0.3031
 8708SOL    HW334605   1.225   4.343   3.063 -0.3597 -1.4498  0.1012
 8708SOL    MW434606   1.153   4.386   3.088  0.1198  0.4534  0.3854
 8709SOL     OW34607   2.576   0.649   1.310 -0.4125 -0.0104  0.2190
 8709SOL    HW234608   2.609   0.681   1.226  1.7828 -1.9861  0.2047
 8709SOL    HW334609   2.588   0.554   1.306  1.6409 -0.0415  3.4138
 8709SOL    MW434610   2.582   0.641   1.298 -0.5671  0.0879  0.2039
 8710SOL     OW34611   5.463   0.212   3.326 -0.4422 -0.0613 -0.7830
 8710SOL    HW234612   5.475   0.304   3.351 -0.3980 -0.5826  1.2798
 8710SOL    HW334613   5.538   0.193   3.269 -0.4321  1.1504 -1.2096
 8710SOL    MW434614   5.474   0.222   3.321 -0.5764  0.5333 -0.3474
 8711SOL     OW34615   4.095   6.354   0.768 -0.3311  0.5114 -0.1050
 8711SOL    HW234616   4.061   6.443   0.759 -1.1480  0.6271  3.0358
 8711SOL    HW334617   4.185   6.366   0.797 -0.1706  0.2813 -0.4961
 8711SOL    MW434618   4.103   6.367   0.771  0.4078  0.3332 -0.3618
 8712SOL     OW34619   4.234   5.956   2.412 -0.4035  0.4956  0.2938
 8712SOL    HW234620   4.166   6.004   2.460 -1.3384  0.9189 -1.3609
 8712SOL    HW334621   4.294   6.024   2.382  0.5505  0.1644  1.3952
 8712SOL    MW434622   4.233   5.972   2.414 -0.6854 -0.0854 -0.1726
 8713SOL     OW34623   5.434   0.927   0.889  0.4180  0.3422 -0.0303
 8713SOL    HW234624   5.442   1.022   0.897 -0.3820  0.4543 -0.4862
 8713SOL    HW334625   5.492   0.893   0.957 -0.1978  1.1804  0.9557
 8713SOL    MW434626   5.443   0.935   0.899 -0.2536 -0.3936  0.2873
 8714SOL     OW34627   1.177   5.355   2.416  0.0414 -0.3523  0.0656
 8714SOL    HW234628   1.245   5.347   2.483  0.6003  0.3621 -0.4155
 8714SOL    HW334629   1.119   5.279   2.432  0.4662 -0.4888  1.0071
 8714SOL    MW434630   1.178   5.344   2.427 -0.2423  0.5022  0.1891
 8715SOL     OW34631   3.649   5.695   4.364 -0.7888  0.0205  0.5391
 8715SOL    HW234632   3.739   5.708   4.336 -0.8179 -0.6962  0.0636
 8715SOL    HW334633   3.653   5.695   4.460 -0.4226  0.8216  0.5314
 8715SOL    MW434634   3.661   5.696   4.373  0.0034  0.1504  0.1096
 8716SOL     OW34635   5.740   5.678   1.189  0.1531 -0.9305  0.1359
 8716SOL    HW234636   5.749   5.604   1.129  1.2386  0.3166 -1.3203
 8716SOL    HW334637   5.827   5.689   1.227  0.3399  0.3665 -0.6288
 8716SOL    MW434638   5.752   5.669   1.186  0.0506 -0.4501 -0.5538
 8717SOL     OW34639   5.463   3.434   5.638  0.1194  0.5413 -0.1733
 8717SOL    HW234640   5.479   3.389   5.721  1.3252 -0.5815 -0.9640
 8717SOL    HW334641   5.370   3.418   5.619 -0.0668  0.4801  0.7567
 8717SOL    MW434642   5.453   3.426   5.647  0.0964 -0.2954  1.1286
 8718SOL     OW34643   6.075   0.625   2.089  0.0577  0.1342 -0.2289
 8718SOL    HW234644   5.996   0.574   2.108  0.2784  0.3134  1.3715
 8718SOL    HW334645   6.136   0.600   2.159  1.0589  0.7584 -0.8535
 8718SOL    MW434646   6.073   0.615   2.101  0.3027  0.1127  0.8361
 8719SOL     OW34647   3.636   0.750   4.132  0.1372  0.0797 -0.3605
 8719SOL    HW234648   3.719   0.794   4.153 -0.1229 -0.2777  1.6571
 8719SOL    HW334649   3.631   0.752   4.037  0.5384  3.7057 -0.4676
 8719SOL    MW434650   3.646   0.756   4.122 -0.2018 -0.0660 -0.2573
 8720SOL     OW34651   0.745   5.530   2.853 -0.1540 -0.4578 -0.1458
 8720SOL    HW234652   0.792   5.498   2.930 -0.0281 -0.5220 -0.2481
 8720SOL    HW334653   0.691   5.457   2.825  0.3068 -0.6677 -0.5166
 8720SOL    MW434654   0.744   5.516   2.859  0.0717 -0.2143  0.1714
 8721SOL     OW34655   4.591   1.962   0.807  0.0379  0.1190  0.5686
 8721SOL    HW234656   4.558   1.873   0.791  0.2602  0.0464  0.5065
 8721SOL    HW334657   4.516   2.010   0.841  0.1401 -0.3358  1.4723
 8721SOL    MW434658   4.577   1.956   0.809 -0.0527 -0.1419  0.0749
 8722SOL     OW34659   2.050   4.087   4.688 -0.0554  0.1470 -0.4413
 8722SOL    HW234660   2.000   4.082   4.606  0.1748  1.6490 -0.7173
 8722SOL    HW334661   2.063   3.996   4.714 -3.2157 -0.3654 -0.1762
 8722SOL    MW434662   2.045   4.075   4.681  0.1387  0.2982  0.3485
 8723SOL     OW34663   1.030   5.238   5.771 -0.5392 -0.5086  0.0675
 8723SOL    HW234664   0.941   5.244   5.805 -0.2389 -1.3899  1.0599
 8723SOL    HW334665   1.048   5.144   5.768  0.3358 -0.3394 -0.1703
 8723SOL    MW434666   1.020   5.226   5.775 -0.1444  0.0064  0.1514
 8724SOL     OW34667   3.153   6.212   2.875 -0.3897  0.8505  0.2170
 8724SOL    HW234668   3.061   6.190   2.889  0.0608 -1.8916 -0.6274
 8724SOL    HW334669   3.162   6.219   2.780  0.4831  0.0060  0.2313
 8724SOL    MW434670   3.142   6.210   2.864  0.2109  0.1598  0.5393
 8725SOL     OW34671   1.291   4.321   5.877 -0.3466 -0.0710  0.2305
 8725SOL    HW234672   1.274   4.322   5.971 -0.7882 -2.7685  0.2782
 8725SOL    HW334673   1.224   4.378   5.840 -0.4355  0.6880  1.4944
 8725SOL    MW434674   1.280   4.329   5.885 -0.2993 -0.3879  0.2425
 8726SOL     OW34675   0.492   4.620   5.556 -0.5980  0.2358  0.1414
 8726SOL    HW234676   0.550   4.604   5.481  0.2929  0.2073  0.8268
 8726SOL    HW334677   0.514   4.708   5.585 -1.7775  0.7076 -0.3493
 8726SOL    MW434678   0.503   4.629   5.550  0.2927  0.2579 -0.2621
 8727SOL     OW34679   5.578   6.337   1.304 -0.0972  0.3509  0.3084
 8727SOL    HW234680   5.557   6.284   1.228  1.8573  0.6168 -0.4668
 8727SOL    HW334681   5.652   6.391   1.277 -0.3198  1.5647  1.9177
 8727SOL    MW434682   5.585   6.337   1.291 -0.8927  0.0103 -0.1800
 8728SOL     OW34683   4.979   2.616   4.136 -0.1831 -1.0643  0.6193
 8728SOL    HW234684   4.945   2.691   4.185 -0.9119 -1.0634  0.1246
 8728SOL    HW334685   4.987   2.649   4.046  3.7177 -0.1760  1.1058
 8728SOL    MW434686   4.976   2.631   4.130 -0.4139  0.1441  0.0952
 8729SOL     OW34687   6.073   4.285   1.459 -0.7674  0.2867 -0.2868
 8729SOL    HW234688   6.104   4.197   1.440 -0.4109  0.2563  0.4086
 8729SOL    HW334689   5.977   4.279   1.454 -0.9260 -0.8601  2.6699
 8729SOL    MW434690   6.064   4.273   1.456  0.2227 -0.2805 -0.1322
 8730SOL     OW34691   0.312   4.230   1.564  0.3102 -0.1555 -0.1622
 8730SOL    HW234692   0.342   4.176   1.491 -0.0238 -1.6796  0.7712
 8730SOL    HW334693   0.384   4.228   1.627 -0.0004 -0.1560  0.1989
 8730SOL    MW434694   0.325   4.222   1.563  0.1079  0.0260  0.1362
 8731SOL     OW34695   0.501   0.158   2.989 -0.4443  0.5808 -0.0674
 8731SOL    HW234696   0.509   0.111   2.907  2.5651 -5.8168  3.1460
 8731SOL    HW334697   0.412   0.141   3.019  0.4051 -3.3495  0.7693
 8731SOL    MW434698   0.491   0.150   2.982  0.8032 -0.7604 -0.1139
 8732SOL     OW34699   5.721   6.220   3.017  0.7436 -0.7209 -0.1207
 8732SOL    HW234700   5.772   6.151   2.972  1.6329  0.5231 -1.1040
 8732SOL    HW334701   5.785   6.289   3.035 -0.4943  0.7089 -0.9746
 8732SOL    MW434702   5.736   6.220   3.013 -0.6334  0.8519 -1.0256
 8733SOL     OW34703   1.854   3.007   1.317 -0.0888  0.2060 -0.0904
 8733SOL    HW234704   1.873   2.931   1.372  0.5920  0.5881  0.2173
 8733SOL    HW334705   1.904   3.078   1.356 -0.9097  0.8736 -0.2342
 8733SOL    MW434706   1.863   3.006   1.329  0.1520 -0.3070 -0.2190
 8734SOL     OW34707   4.803   1.107   3.201  0.1031 -0.4291  0.2820
 8734SOL    HW234708   4.792   1.075   3.291  0.2651 -1.1732  0.0475
 8734SOL    HW334709   4.730   1.068   3.153  0.2981 -0.4336 -0.0118
 8734SOL    MW434710   4.792   1.097   3.207 -0.4942 -0.7103  0.8105
 8735SOL     OW34711   2.263   0.704   2.222 -0.4940 -0.1487 -0.0053
 8735SOL    HW234712   2.214   0.752   2.155  0.3282  1.4701  0.4922
 8735SOL    HW334713   2.277   0.768   2.292  1.8968 -0.6647  0.0809
 8735SOL    MW434714   2.258   0.719   2.222 -0.1247  0.3840 -0.1243
 8736SOL     OW34715   2.675   6.217   2.341  0.4667 -0.4451  0.1867
 8736SOL    HW234716   2.716   6.204   2.255  2.2695  1.2436  0.7162
 8736SOL    HW334717   2.698   6.138   2.390  2.2860  0.0037  0.1294
 8736SOL    MW434718   2.684   6.205   2.336 -0.3335 -0.4390  1.0327
 8737SOL     OW34719   5.596   4.722   5.172 -0.0454 -0.0943  0.3768
 8737SOL    HW234720   5.605   4.671   5.252 -0.9093 -1.0593 -0.1221
 8737SOL    HW334721   5.596   4.813   5.201 -1.5574 -0.4506  1.6181
 8737SOL    MW434722   5.597   4.727   5.186  0.0926  0.4206 -0.0949
 8738SOL     OW34723   5.538   4.196   4.096  0.0758 -0.4184 -0.0858
 8738SOL    HW234724   5.523   4.211   4.003 -0.7144  1.7241  0.3356
 8738SOL    HW334725   5.450   4.185   4.133  0.2641  0.5702  0.6711
 8738SOL    MW434726   5.524   4.196   4.089 -0.0526  0.0367 -0.1140
 8739SOL     OW34727   3.419   1.625   2.086 -0.3932 -0.9607 -0.1039
 8739SOL    HW234728   3.445   1.659   2.171  0.5499 -0.0635 -0.7276
 8739SOL    HW334729   3.323   1.626   2.088 -0.3903  0.7842  0.2832
 8739SOL    MW434730   3.410   1.630   2.097  0.1156  0.2525 -0.7823
 8740SOL     OW34731   4.448   0.809   2.229  0.5887 -0.0852  0.0330
 8740SOL    HW234732   4.437   0.718   2.258 -0.7885 -0.0119 -0.1597
 8740SOL    HW334733   4.528   0.839   2.272  0.3576 -0.9917  1.1393
 8740SOL    MW434734   4.457   0.801   2.238  0.5956 -0.5606 -0.0796
 8741SOL     OW34735   0.323   2.524   3.910 -0.4269 -0.8233 -0.1882
 8741SOL    HW234736   0.388   2.491   3.972  0.4147 -0.5459 -0.9111
 8741SOL    HW334737   0.257   2.566   3.966  0.6433 -0.0034  0.5099
 8741SOL    MW434738   0.323   2.526   3.926  0.1605 -0.3617  0.2001
 8742SOL     OW34739   6.204   2.968   5.070  0.1003  0.1616 -0.0665
 8742SOL    HW234740   6.299   2.980   5.065  0.2751 -0.8065  0.6664
 8742SOL    HW334741   6.185   2.903   5.004  0.0970 -0.4066  0.4880
 8742SOL    MW434742   6.214   2.961   5.061  0.3220 -0.2079  0.0855
 8743SOL     OW34743   1.213   0.010   4.016  0.0455 -0.0233 -0.0924
 8743SOL    HW234744   1.275   0.080   3.997  0.2158 -0.1268  0.0807
 8743SOL    HW334745   1.255  -0.069   3.984  0.4093 -0.2244  0.8467
 8743SOL    MW434746   1.227   0.009   4.010 -0.4592  0.3043  0.2730
 8744SOL     OW34747   0.375   3.895   3.248 -0.4266  0.0757 -0.6038
 8744SOL    HW234748   0.437   3.961   3.279 -0.0106  0.1428 -1.5355
 8744SOL    HW334749   0.291   3.920   3.288  0.3577 -0.7912  1.7773
 8744SOL    MW434750   0.372   3.907   3.257  0.1210 -0.2855  0.2914
 8745SOL     OW34751   6.022   1.448   2.465  0.5410  0.0017 -0.1280
 8745SOL    HW234752   6.036   1.542   2.455  0.1314  0.0149 -0.5657
 8745SOL    HW334753   6.070   1.426   2.545 -1.8752  1.1368  1.7636
 8745SOL    MW434754   6.031   1.457   2.474 -0.1912 -1.0321 -0.0850
 8746SOL     OW34755   6.114   3.213   5.967 -0.9436 -0.3438 -0.1028
 8746SOL    HW234756   6.062   3.291   5.987 -2.0267 -1.0836  0.0736
 8746SOL    HW334757   6.156   3.233   5.884 -0.6459  0.6961  0.2852
 8746SOL    MW434758   6.112   3.226   5.959 -0.3377  0.1934 -0.2328
 8747SOL     OW34759   4.541   6.318   1.674  0.4921  0.0911 -0.8174
 8747SOL    HW234760   4.482   6.283   1.608  1.6893 -0.8287 -1.4318
 8747SOL    HW334761   4.492   6.313   1.756 -0.0419 -1.2714 -1.2091
 8747SOL    MW434762   4.527   6.313   1.676 -0.2870 -0.1825  0.0036
 8748SOL     OW34763   6.075   2.203   4.947  0.1569 -0.1333  0.2374
 8748SOL    HW234764   6.063   2.286   4.900 -0.1005  1.0331  2.2550
 8748SOL    HW334765   6.169   2.184   4.937  0.1353  0.1477 -0.6259
 8748SOL    MW434766   6.086   2.212   4.939 -0.1767  0.1358  0.0837
 8749SOL     OW34767   4.973   1.792   4.797  0.2695 -0.1962 -0.3491
 8749SOL    HW234768   4.997   1.751   4.880  1.7401 -1.1936 -1.2126
 8749SOL    HW334769   4.905   1.735   4.760  0.0009 -0.0474 -0.0882
 8749SOL    MW434770   4.967   1.779   4.803  0.3666 -0.1126  0.4511
 8750SOL     OW34771   2.275   2.469   4.926  0.2698 -0.4827 -0.2849
 8750SOL    HW234772   2.279   2.490   4.832 -1.7511  2.4821  0.1353
 8750SOL    HW334773   2.268   2.374   4.929  0.5067 -0.6889 -3.1405
 8750SOL    MW434774   2.274   2.460   4.914 -0.0503 -0.8375 -0.5084
 8751SOL     OW34775   1.059   4.962   5.768 -0.1038  0.5626 -0.2588
 8751SOL    HW234776   1.138   4.914   5.744 -1.0857 -0.7199 -1.0692
 8751SOL    HW334777   0.987   4.899   5.753 -1.2278  1.4676  1.0521
 8751SOL    MW434778   1.060   4.947   5.763 -0.1498 -0.1245  0.5043
 8752SOL     OW34779   5.298   0.682   3.587  0.3134  0.0870 -0.1286
 8752SOL    HW234780   5.353   0.611   3.621  0.4983 -0.6452 -1.8721
 8752SOL    HW334781   5.353   0.760   3.596  1.5715 -0.5791 -1.5217
 8752SOL    MW434782   5.313   0.683   3.593 -0.4916 -1.1165 -0.5036
 8753SOL     OW34783   4.991   0.621   2.279 -0.1406 -0.7224  0.4520
 8753SOL    HW234784   5.010   0.665   2.361  0.4170  1.5863 -0.8191
 8753SOL    HW334785   4.897   0.603   2.283 -1.2318  3.5905 -0.1163
 8753SOL    MW434786   4.981   0.625   2.290  0.8450  0.0268  0.1667
 8754SOL     OW34787   2.889   6.386   4.399  0.4009  0.1829  0.4445
 8754SOL    HW234788   2.930   6.462   4.357 -0.3385  0.1312 -0.4035
 8754SOL    HW334789   2.795   6.403   4.394  0.2565 -0.3553  1.0977
 8754SOL    MW434790   2.882   6.398   4.393  0.3542  0.1011 -0.3629
 8755SOL     OW34791   1.440   3.089   2.301  0.2608  0.1539 -0.2268
 8755SOL    HW234792   1.382   3.062   2.229 -0.1859  2.8585 -0.9964
 8755SOL    HW334793   1.381   3.101   2.376  0.6142 -1.8721  0.4420
 8755SOL    MW434794   1.425   3.087   2.301 -0.1264 -0.1083  0.2060
 8756SOL     OW34795   6.382   6.371   6.079 -0.3799 -0.1791 -0.0476
 8756SOL    HW234796   6.376   6.357   5.985  1.4855 -0.1158 -0.2029
 8756SOL    HW334797   6.446   6.307   6.109 -1.1901 -0.4199  1.2483
 8756SOL    MW434798   6.390   6.361   6.071 -0.5668 -0.4200 -0.3580
 8757SOL     OW34799   4.497   6.008   3.175 -0.7085 -0.0509  0.2890
 8757SOL    HW234800   4.575   6.055   3.205 -1.3115 -0.0033  1.8750
 8757SOL    HW334801   4.466   6.059   3.100  1.3264 -0.6403 -1.0483
 8757SOL    MW434802   4.503   6.021   3.169  0.4177 -0.9048 -0.2988
 8758SOL     OW34803   2.271   1.329   0.751 -0.1234  0.0840  0.0850
 8758SOL    HW234804   2.230   1.251   0.715  0.1081 -0.3777  0.8055
 8758SOL    HW334805   2.365   1.314   0.741 -0.0751  0.2155  0.3356
 8758SOL    MW434806   2.278   1.317   0.745 -0.5425  0.2467  0.3874
 8759SOL     OW34807   5.300   4.718   3.595 -0.7552 -0.6499 -0.3683
 8759SOL    HW234808   5.355   4.667   3.656  2.0424  0.5983 -1.6646
 8759SOL    HW334809   5.280   4.657   3.525  0.9325 -0.5878 -0.9559
 8759SOL    MW434810   5.305   4.703   3.594 -0.0401 -0.1036 -0.0015
 8760SOL     OW34811   5.585   2.856   5.133 -0.1589  0.4973 -0.1987
 8760SOL    HW234812   5.616   2.909   5.207  1.2816 -1.4281  0.6638
 8760SOL    HW334813   5.490   2.858   5.140 -0.0593  0.0598  1.9787
 8760SOL    MW434814   5.577   2.863   5.144  0.2028  0.1087  0.3664
 8761SOL     OW34815   1.654   6.214   4.954  0.0980  0.4503  0.7430
 8761SOL    HW234816   1.666   6.271   5.030  1.8794  0.6376  0.3650
 8761SOL    HW334817   1.743   6.203   4.918 -0.6789  0.2390 -1.2193
 8761SOL    MW434818   1.668   6.220   4.959 -0.6641  0.0742 -0.5988
 8762SOL     OW34819   5.175   3.841   4.183 -0.4047 -0.3868  0.5268
 8762SOL    HW234820   5.266   3.813   4.196  0.2636  2.0640  1.8790
 8762SOL    HW334821   5.169   3.857   4.089  0.7841 -0.0252  0.4837
 8762SOL    MW434822   5.187   3.840   4.172 -0.1926  0.1118  0.3030
 8763SOL     OW34823   6.414   5.358   1.887 -0.5226  0.4872  0.2874
 8763SOL    HW234824   6.433   5.382   1.797 -1.0345 -1.9116 -0.5496
 8763SOL    HW334825   6.499   5.348   1.929 -0.2604  0.7713 -0.1807
 8763SOL    MW434826   6.427   5.360   1.881 -0.4748 -0.0095  0.1844
 8764SOL     OW34827   5.948   2.187   0.818  0.3449  0.8250  0.2839
 8764SOL    HW234828   5.931   2.095   0.840 -0.1983  0.9929  0.5944
 8764SOL    HW334829   6.042   2.199   0.836  0.1061  0.7234  1.7315
 8764SOL    MW434830   5.958   2.176   0.824  0.3115 -0.1220 -0.3060
 8765SOL     OW34831   1.323   4.133   1.988 -0.0969 -0.4405 -0.2562
 8765SOL    HW234832   1.284   4.216   2.015  1.9985  0.5480 -0.0996
 8765SOL    HW334833   1.346   4.089   2.070 -0.7989 -1.0174 -0.3505
 8765SOL    MW434834   1.321   4.138   2.002  0.0618  0.3239  0.4640
 8766SOL     OW34835   1.929   4.520   4.173 -0.0493  0.2664  0.0837
 8766SOL    HW234836   1.837   4.499   4.183  0.1104 -0.7944 -0.5251
 8766SOL    HW334837   1.974   4.467   4.239  0.1282  0.9001  0.4908
 8766SOL    MW434838   1.923   4.511   4.183 -0.0404  0.4882  0.0749
 8767SOL     OW34839   4.340   1.376   0.167 -0.1957  0.1813 -0.0064
 8767SOL    HW234840   4.333   1.426   0.248 -1.5824  0.1661 -0.0801
 8767SOL    HW334841   4.397   1.428   0.111  0.7717  0.1893  0.9670
 8767SOL    MW434842   4.346   1.390   0.170  0.4643 -0.2728 -0.1075
 8768SOL     OW34843   3.037   2.455   5.208 -0.0916 -1.0111  0.4260
 8768SOL    HW234844   3.037   2.510   5.129 -1.5187 -1.8552 -0.1992
 8768SOL    HW334845   3.108   2.392   5.194 -0.5903 -1.4082 -0.3925
 8768SOL    MW434846   3.046   2.454   5.196  0.4779  0.1800 -0.4581
 8769SOL     OW34847   4.639   2.548   1.518  0.0639 -0.0690 -0.1949
 8769SOL    HW234848   4.722   2.503   1.503  1.5073  0.9560  3.4390
 8769SOL    HW334849   4.664   2.639   1.536 -2.0491  0.6791 -0.7376
 8769SOL    MW434850   4.653   2.554   1.519  0.1011 -0.6839  0.5950
 8770SOL     OW34851   3.832   6.156   1.869 -0.3114  0.2561  0.0474
 8770SOL    HW234852   3.873   6.070   1.853 -2.0389 -1.0463  2.0755
 8770SOL    HW334853   3.898   6.205   1.917  0.3214 -0.3216 -0.2057
 8770SOL    MW434854   3.846   6.151   1.873 -0.5508  0.2121 -0.3021
 8771SOL     OW34855   1.054   3.747   2.367  0.6116 -0.4730 -0.6405
 8771SOL    HW234856   1.076   3.827   2.414 -1.7080 -0.7609  1.1082
 8771SOL    HW334857   1.024   3.777   2.281  0.2533  0.5210 -0.1887
 8771SOL    MW434858   1.053   3.761   2.362 -0.0893 -1.1942  0.0846
 8772SOL     OW34859   4.953   5.645   0.488 -0.7693  0.7647  0.1631
 8772SOL    HW234860   4.881   5.658   0.550 -0.9089  0.0301  0.1608
 8772SOL    HW334861   4.973   5.552   0.493  0.4324  1.0270  0.4255
 8772SOL    MW434862   4.946   5.634   0.497 -0.3469 -0.0187 -0.2776
 8773SOL     OW34863   5.339   6.076   1.992  0.1401 -0.3326 -0.1824
 8773SOL    HW234864   5.295   6.134   1.930  2.0110  2.8274  1.2088
 8773SOL    HW334865   5.316   5.988   1.962  0.2914  0.9334 -4.9379
 8773SOL    MW434866   5.330   6.072   1.980  0.2284  0.0466 -0.0725
 8774SOL     OW34867   2.760   4.613   6.129  0.4122  0.0606 -0.5982
 8774SOL    HW234868   2.669   4.597   6.150  0.7682  1.5447  2.7701
 8774SOL    HW334869   2.798   4.526   6.114 -1.0989 -0.7496  0.1205
 8774SOL    MW434870   2.753   4.600   6.130  0.3940 -0.1220 -0.6317
 8775SOL     OW34871   0.088   1.271   4.368 -0.2911 -0.0403 -0.1034
 8775SOL    HW234872   0.100   1.324   4.446 -0.8632 -1.0276  0.6810
 8775SOL    HW334873   0.072   1.334   4.298 -1.9519  0.7902  0.9646
 8775SOL    MW434874   0.088   1.286   4.369  0.2546 -0.5962  0.0811
 8776SOL     OW34875   2.534   2.439   4.794  0.0849  0.6003  0.2958
 8776SOL    HW234876   2.462   2.401   4.844 -1.4705  1.6343 -1.0381
 8776SOL    HW334877   2.544   2.382   4.718  1.6602 -0.3125  1.1286
 8776SOL    MW434878   2.526   2.427   4.791 -0.2283 -0.1964 -0.4241
 8777SOL     OW34879   2.914   2.465   0.752  0.0591  0.6349  0.2601
 8777SOL    HW234880   2.935   2.495   0.840 -0.2396  0.9650  0.2233
 8777SOL    HW334881   2.830   2.507   0.732  1.4687  2.9705 -1.2994
 8777SOL    MW434882   2.906   2.475   0.761  0.1316 -0.4509 -0.7225
 8778SOL     OW34883   0.655   0.802   1.097  0.2373 -0.2400  0.3284
 8778SOL    HW234884   0.670   0.896   1.084 -0.7239  0.0168  0.9780
 8778SOL    HW334885   0.609   0.774   1.018 -0.9450  0.2002  0.8465
 8778SOL    MW434886   0.651   0.811   1.085 -0.2775 -0.2816 -0.3998
 8779SOL     OW34887   1.530   6.321   0.801  0.5929 -0.1968  0.0900
 8779SOL    HW234888   1.566   6.232   0.799  0.4558 -0.2474 -0.1525
 8779SOL    HW334889   1.603   6.376   0.830  0.9325 -0.2628 -0.6293
 8779SOL    MW434890   1.544   6.316   0.805  0.1193  0.5177 -0.7232
 8780SOL     OW34891   0.212   1.703   5.318 -0.0216  0.5405  0.5454
 8780SOL    HW234892   0.117   1.700   5.332 -0.1973  1.5452 -0.3061
 8780SOL    HW334893   0.227   1.644   5.243 -0.2496  1.8146 -0.5423
 8780SOL    MW434894   0.202   1.695   5.310  0.0908 -0.2079  0.3208
 8781SOL     OW34895   3.267   3.211   4.713 -0.5516 -0.0775 -0.5877
 8781SOL    HW234896   3.337   3.153   4.683  1.2975  1.3799  0.7444
 8781SOL    HW334897   3.263   3.280   4.647 -0.1885  0.2590 -0.2585
 8781SOL    MW434898   3.276   3.212   4.700 -0.4991  0.5611  0.2454
 8782SOL     OW34899   5.431   4.476   5.817 -0.2435  0.0445  0.8346
 8782SOL    HW234900   5.361   4.412   5.805 -0.6857  0.1363  2.6667
 8782SOL    HW334901   5.386   4.560   5.822  0.1360  0.2614  0.6324
 8782SOL    MW434902   5.416   4.479   5.816 -0.0825 -0.0048 -0.4680
 8783SOL     OW34903   3.940   0.461   0.235  0.2027  0.2828 -0.1572
 8783SOL    HW234904   3.936   0.467   0.331  1.5913  0.8939 -0.1063
 8783SOL    HW334905   3.922   0.549   0.204  0.3978  0.2332 -0.4211
 8783SOL    MW434906   3.937   0.473   0.244  0.2553 -0.0200 -0.4494
 8784SOL     OW34907   3.154   0.558   6.378 -0.0430  0.2229  0.2849
 8784SOL    HW234908   3.235   0.518   6.348 -0.4472  0.0976 -0.6897
 8784SOL    HW334909   3.086   0.495   6.354 -0.3453 -0.1936  2.0950
 8784SOL    MW434910   3.156   0.544   6.371 -0.7644  0.0530  0.3813
 8785SOL     OW34911   1.441   0.142   5.187  0.4737  0.1051  0.2591
 8785SOL    HW234912   1.372   0.147   5.121  1.6764  1.2784 -0.9936
 8785SOL    HW334913   1.395   0.125   5.269 -0.9183 -3.8702 -1.1204
 8785SOL    MW434914   1.426   0.140   5.189 -0.0810 -0.5137 -0.2510
 8786SOL     OW34915   0.524   1.775   0.196 -0.0448 -0.8413 -0.4684
 8786SOL    HW234916   0.505   1.681   0.197  1.3429 -1.1514  0.8593
 8786SOL    HW334917   0.618   1.781   0.213 -0.4253  0.8355  1.4429
 8786SOL    MW434918   0.534   1.764   0.198  0.1667  0.2904  0.6310
 8787SOL     OW34919   3.084   2.388   6.038  0.2004 -0.3036  0.0078
 8787SOL    HW234920   3.069   2.318   6.101  2.1220 -0.8312 -0.0587
 8787SOL    HW334921   3.036   2.360   5.960 -1.2979 -0.1731  0.8391
 8787SOL    MW434922   3.076   2.375   6.036 -0.0170  0.1881 -0.3447
 8788SOL     OW34923   3.553   6.019   5.159 -0.0408  0.1703 -0.0066
 8788SOL    HW234924   3.628   5.981   5.205  1.5357  0.0823 -2.4957
 8788SOL    HW334925   3.576   6.110   5.144 -0.8969  0.4171  0.1071
 8788SOL    MW434926   3.566   6.026   5.163 -0.1844  0.0043 -0.3827
 8789SOL     OW34927   1.551   1.251   2.732 -0.1345 -0.4438 -0.4615
 8789SOL    HW234928   1.471   1.208   2.762  0.3221 -1.5893 -0.8662
 8789SOL    HW334929   1.593   1.282   2.813 -0.7826 -0.1726 -0.2222
 8789SOL    MW434930   1.546   1.250   2.747  0.0566  0.2731  0.2262
 8790SOL     OW34931   4.243   2.140   5.169  0.3346 -0.1841 -0.2555
 8790SOL    HW234932   4.251   2.105   5.258  1.1178  0.4573 -0.0588
 8790SOL    HW334933   4.327   2.119   5.128  0.0589 -0.2861 -0.7770
 8790SOL    MW434934   4.255   2.132   5.175  0.1871 -0.5514 -0.0926
 8791SOL     OW34935   1.600   3.766   6.222 -0.4633  0.0379  0.1693
 8791SOL    HW234936   1.570   3.783   6.133 -0.2110 -0.8055 -0.0888
 8791SOL    HW334937   1.604   3.671   6.229 -0.9451  0.0772  1.2479
 8791SOL    MW434938   1.597   3.756   6.212 -0.4001  0.6135  0.0855
 8792SOL     OW34939   0.960   4.877   4.363  0.0728  0.3750 -0.2271
 8792SOL    HW234940   0.903   4.808   4.329 -2.1449 -0.4034  4.4287
 8792SOL    HW334941   1.040   4.832   4.387 -0.5893 -0.2320  0.9003
 8792SOL    MW434942   0.963   4.862   4.361 -0.0987  0.4448  0.2072
 8793SOL     OW34943   1.485   4.156   4.872  0.1033 -0.2442  0.2667
 8793SOL    HW234944   1.425   4.149   4.797  1.3056  2.3530 -1.0835
 8793SOL    HW334945   1.438   4.114   4.944 -1.8061 -1.4237 -1.5180
 8793SOL    MW434946   1.471   4.149   4.871  0.2550 -0.3555  0.4934
 8794SOL     OW34947   2.876   0.961   1.164 -0.1484 -0.4224 -0.4183
 8794SOL    HW234948   2.909   1.046   1.135 -0.7892  0.1996  0.6341
 8794SOL    HW334949   2.940   0.931   1.228 -0.2286 -0.4549 -0.3537
 8794SOL    MW434950   2.889   0.968   1.168  0.7587  0.7829 -0.0513
 8795SOL     OW34951   3.960   0.398   1.509  0.4900 -0.2658 -0.5309
 8795SOL    HW234952   4.049   0.425   1.530  0.6268 -0.2810 -1.0631
 8795SOL    HW334953   3.957   0.306   1.534  0.2961 -0.0040  0.4585
 8795SOL    MW434954   3.972   0.390   1.515  0.1212  0.2999  0.1218
 8796SOL     OW34955   5.990   1.612   5.346  0.8268 -0.2138 -0.4106
 8796SOL    HW234956   5.913   1.615   5.289 -0.8596  2.3211  1.7630
 8796SOL    HW334957   5.979   1.532   5.397 -0.1859 -0.0988 -0.4262
 8796SOL    MW434958   5.979   1.602   5.345 -0.0130 -0.5636 -0.8607
 8797SOL     OW34959   6.349   0.367   3.875  0.2164  0.3883 -0.2011
 8797SOL    HW234960   6.315   0.367   3.965  2.9255 -0.2682  0.9277
 8797SOL    HW334961   6.389   0.453   3.864 -0.2048  0.5082 -0.8221
 8797SOL    MW434962   6.350   0.378   3.885  0.1700  0.1719 -0.3803
 8798SOL     OW34963   5.672   0.331   2.344 -0.8699  0.4999  0.2243
 8798SOL    HW234964   5.743   0.267   2.350 -1.5198 -0.1515  1.3255
 8798SOL    HW334965   5.607   0.288   2.289 -0.0972  1.4472 -1.5186
 8798SOL    MW434966   5.673   0.317   2.338  0.2858  0.2716 -0.0330
 8799SOL     OW34967   1.647   1.873   4.882 -0.0670 -0.9356  0.0848
 8799SOL    HW234968   1.735   1.851   4.849 -0.0208 -0.0072 -0.4369
 8799SOL    HW334969   1.657   1.958   4.923 -1.2431  0.5300 -2.4219
 8799SOL    MW434970   1.660   1.881   4.883  0.2372  0.4163 -0.7268
 8800SOL     OW34971   6.188   0.973   0.457 -0.6313  0.4672 -0.0913
 8800SOL    HW234972   6.141   0.929   0.528  0.1351  0.0030  0.1392
 8800SOL    HW334973   6.218   0.902   0.400  0.7106  0.6625  0.3388
 8800SOL    MW434974   6.186   0.958   0.459 -0.3450  0.4263  0.4905
 8801SOL     OW34975   2.849   2.655   1.834 -0.0139 -0.3768 -0.6653
 8801SOL    HW234976   2.916   2.628   1.772 -0.0533 -1.0522 -0.4256
 8801SOL    HW334977   2.895   2.662   1.918 -0.0767 -0.0313 -0.6572
 8801SOL    MW434978   2.864   2.652   1.837 -0.2239 -0.6771 -0.4612
 8802SOL     OW34979   1.069   1.459   4.369 -0.3047  0.3010  0.4426
 8802SOL    HW234980   1.031   1.456   4.457  1.1562  1.9360  1.1834
 8802SOL    HW334981   1.094   1.368   4.351 -1.1928 -0.1621  1.4240
 8802SOL    MW434982   1.067   1.447   4.378  0.2725  0.1512  0.1412
 8803SOL     OW34983   4.122   1.635   4.434 -0.5014 -0.2521  0.5511
 8803SOL    HW234984   4.158   1.556   4.393  0.4239 -0.0431  0.9167
 8803SOL    HW334985   4.153   1.707   4.379 -1.2533 -0.1305  0.2785
 8803SOL    MW434986   4.131   1.634   4.422 -0.4593  0.1050  0.0299
 8804SOL     OW34987   1.115   1.044   0.034 -0.0847  0.5355  0.0942
 8804SOL    HW234988   1.028   1.026  -0.001  0.4408  1.1692 -1.6531
 8804SOL    HW334989   1.171   0.978  -0.007  0.6839  1.7949 -0.9908
 8804SOL    MW434990   1.111   1.033   0.024  0.1862 -0.3228  0.0801
 8805SOL     OW34991   5.978   3.457   6.051  0.5772 -0.4471 -0.6884
 8805SOL    HW234992   5.971   3.544   6.090 -0.5674 -1.5824  1.8512
 8805SOL    HW334993   5.923   3.462   5.972  0.1612  0.9929 -0.3399
 8805SOL    MW434994   5.970   3.469   6.045  0.4067  0.2558 -0.6592
 8806SOL     OW34995   4.618   3.954   0.464 -0.0504 -0.1226 -0.1300
 8806SOL    HW234996   4.710   3.935   0.484  0.0196 -1.2998 -1.4304
 8806SOL    HW334997   4.620   4.006   0.384 -0.4634  1.5989  0.9378
 8806SOL    MW434998   4.631   3.958   0.456  0.0798  0.4819  0.2024
 8807SOL     OW34999   2.724   1.324   4.487 -0.2949 -0.1457 -0.0771
 8807SOL    HW235000   2.781   1.280   4.424  1.7812  1.3189  0.6656
 8807SOL    HW335001   2.738   1.417   4.471  0.5893  0.3035  2.6821
 8807SOL    MW435002   2.734   1.330   4.477  0.2076  0.2667 -0.9181
 8808SOL     OW35003   1.856   0.985   3.630  0.0238 -0.3870 -0.3282
 8808SOL    HW235004   1.888   1.050   3.693 -0.1348 -1.2661  0.6851
 8808SOL    HW335005   1.762   0.999   3.626 -0.0964 -0.9523  0.3705
 8808SOL    MW435006   1.848   0.995   3.638 -0.4801  0.3469  0.4329
 8809SOL     OW35007   2.898   1.758   2.064  0.1700 -0.0619  0.4202
 8809SOL    HW235008   2.849   1.767   1.982 -0.2328 -2.3331  0.3404
 8809SOL    HW335009   2.928   1.847   2.084  0.2766  0.5713 -2.1768
 8809SOL    MW435010   2.895   1.771   2.056  0.1765 -0.6524 -0.1189
 8810SOL     OW35011   2.619   2.854   2.600 -0.4031  0.6442 -0.0502
 8810SOL    HW235012   2.669   2.802   2.536  0.5418 -0.8447  1.7901
 8810SOL    HW335013   2.528   2.847   2.570 -0.1409 -0.9919 -0.6235
 8810SOL    MW435014   2.614   2.846   2.587 -0.2265 -0.8872 -0.0693
 8811SOL     OW35015   3.787   3.420   2.983 -0.5869  0.1104 -0.2421
 8811SOL    HW235016   3.693   3.441   2.984 -1.0689 -1.8297  0.3383
 8811SOL    HW335017   3.818   3.448   3.069 -1.1873 -1.3189  0.4748
 8811SOL    MW435018   3.779   3.426   2.995  0.1418  0.0467  0.2765
 8812SOL     OW35019   6.126   6.241   4.602  0.7368  0.1531 -0.0721
 8812SOL    HW235020   6.089   6.233   4.690 -0.3814 -0.8593 -0.6072
 8812SOL    HW335021   6.221   6.242   4.616  0.5758  0.2187  1.1482
 8812SOL    MW435022   6.134   6.240   4.615  0.3410  0.0162  0.2605
 8813SOL     OW35023   5.142   0.769   4.310 -0.0210  0.3442 -0.3315
 8813SOL    HW235024   5.222   0.818   4.289  0.0913  1.2120  1.8816
 8813SOL    HW335025   5.074   0.836   4.316 -0.0940  0.1591  1.5921
 8813SOL    MW435026   5.144   0.785   4.308  0.5888 -0.2379 -0.1038
 8814SOL     OW35027   6.370   3.846   1.841 -0.2122  0.0041 -0.0302
 8814SOL    HW235028   6.280   3.878   1.855 -1.5028 -2.8971 -0.8987
 8814SOL    HW335029   6.424   3.902   1.897 -2.3867  2.5616 -0.2775
 8814SOL    MW435030   6.365   3.858   1.850  0.0448  0.4405  0.1533
 8815SOL     OW35031   4.531   4.507   0.253  0.0316  0.2937 -0.2620
 8815SOL    HW235032   4.579   4.579   0.214 -0.7427  0.7741 -0.3504
 8815SOL    HW335033   4.506   4.452   0.179 -1.1513  1.0308 -0.4358
 8815SOL    MW435034   4.534   4.509   0.238 -0.3246 -0.6780 -0.0486
 8816SOL     OW35035   2.537   3.581   6.192 -0.0092 -0.1824  0.2464
 8816SOL    HW235036   2.622   3.540   6.176 -0.3852 -0.6399 -0.6452
 8816SOL    HW335037   2.513   3.620   6.107 -1.5359 -1.6415 -0.0397
 8816SOL    MW435038   2.545   3.581   6.178 -0.2054  0.6091  0.0515
 8817SOL     OW35039   1.972   2.406   0.780 -0.3869 -0.1593  0.2520
 8817SOL    HW235040   1.938   2.320   0.807 -0.8039 -0.2110 -0.3997
 8817SOL    HW335041   1.899   2.466   0.794 -1.0106 -0.3847 -1.7790
 8817SOL    MW435042   1.958   2.402   0.785  0.4609 -0.3011  0.1582
 8818SOL     OW35043   5.583   4.384   6.057  0.2580 -0.5805  0.0302
 8818SOL    HW235044   5.517   4.442   6.017 -0.6274 -1.8255 -0.3793
 8818SOL    HW335045   5.545   4.361   6.142 -0.3294 -2.0761 -0.6066
 8818SOL    MW435046   5.569   4.389   6.063 -0.1344 -0.3298 -0.1622
 8819SOL     OW35047   2.014   3.088   4.146  0.8702  0.0708  0.2124
 8819SOL    HW235048   2.046   3.053   4.062 -0.8769  0.7012 -0.7592
 8819SOL    HW335049   2.094   3.101   4.198  1.9864 -0.4581 -1.2888
 8819SOL    MW435050   2.029   3.085   4.142  0.6000  0.1633 -0.4224
 8820SOL     OW35051   6.128   3.535   2.406 -0.4133 -0.5801  0.2183
 8820SOL    HW235052   6.077   3.590   2.465 -0.6540 -0.5709  0.0016
 8820SOL    HW335053   6.173   3.597   2.348  0.2429 -0.5656  0.7260
 8820SOL    MW435054   6.127   3.551   2.406 -0.4959  0.4674 -0.7942
 8821SOL     OW35055   0.692   3.557   6.220  0.3574  0.2962 -0.1196
 8821SOL    HW235056   0.670   3.495   6.150  0.1420 -0.0171  0.2224
 8821SOL    HW335057   0.787   3.564   6.217  0.3523  0.2470 -0.4121
 8821SOL    MW435058   0.701   3.550   6.210  0.3527 -0.0621 -0.1399
 8822SOL     OW35059   5.427   5.301   4.928 -0.4379 -0.3708 -0.0551
 8822SOL    HW235060   5.358   5.339   4.874 -1.6817 -1.3610  0.8067
 8822SOL    HW335061   5.505   5.306   4.872 -0.4698  3.4028  0.0113
 8822SOL    MW435062   5.429   5.306   4.913 -0.0541 -0.0276  0.2254
 8823SOL     OW35063   0.523   1.123   3.218 -0.5900 -0.4224  0.6308
 8823SOL    HW235064   0.432   1.113   3.247 -1.7885  1.9670 -1.8817
 8823SOL    HW335065   0.544   1.214   3.239  1.4976 -1.1171  1.7314
 8823SOL    MW435066   0.513   1.134   3.225 -0.8137 -0.0826 -0.1235
 8824SOL     OW35067   3.918   4.374   4.356  0.0114  0.3174  0.4698
 8824SOL    HW235068   3.847   4.346   4.414 -0.8909 -0.9496 -1.1452
 8824SOL    HW335069   3.994   4.386   4.414 -0.7380 -1.2608  1.8568
 8824SOL    MW435070   3.919   4.372   4.372 -0.0621 -0.0410  0.9016
 8825SOL     OW35071   0.547   1.055   0.767  0.1354  0.2238 -0.0672
 8825SOL    HW235072   0.494   1.080   0.691 -1.5859 -0.8259  0.7165
 8825SOL    HW335073   0.512   1.109   0.839 -0.9633 -1.5400  0.7868
 8825SOL    MW435074   0.535   1.065   0.767 -0.6476 -0.1942 -0.0407
 8826SOL     OW35075   1.142   2.878   6.334 -0.3141 -0.3293  0.0300
 8826SOL    HW235076   1.202   2.833   6.393 -0.4651  0.9009  1.1592
 8826SOL    HW335077   1.199   2.937   6.283 -0.4423  0.2143  0.5050
 8826SOL    MW435078   1.158   2.880   6.335 -0.3860  0.1716 -0.4839
 8827SOL     OW35079   3.986   2.094   2.690  0.1092  0.0646 -0.1506
 8827SOL    HW235080   4.018   2.158   2.626  2.5121  0.3831  1.2642
 8827SOL    HW335081   4.064   2.064   2.736 -1.5080  0.4581  3.2151
 8827SOL    MW435082   4.000   2.099   2.688 -0.3526  0.1846  0.3839
 8828SOL     OW35083   4.409   1.647   4.563 -0.2405  0.1591 -0.1395
 8828SOL    HW235084   4.325   1.602   4.556 -0.8633  1.4021 -1.0061
 8828SOL    HW335085   4.391   1.737   4.537  1.0589  0.8320  1.1432
 8828SOL    MW435086   4.396   1.653   4.558  0.5816 -0.5351  0.0650
 8829SOL     OW35087   1.654   0.343   0.557  0.3432  0.1468  0.1434
 8829SOL    HW235088   1.653   0.388   0.642  0.3181  0.5704 -0.0798
 8829SOL    HW335089   1.591   0.271   0.568  0.3503  0.1904  0.4887
 8829SOL    MW435090   1.646   0.339   0.570  0.3219  0.2106 -0.0512
 8830SOL     OW35091   0.304   4.412   4.281  0.1395 -0.1203 -0.1819
 8830SOL    HW235092   0.381   4.459   4.312 -0.4765 -0.2669  1.7106
 8830SOL    HW335093   0.294   4.339   4.343 -1.6930  0.0768 -0.1905
 8830SOL    MW435094   0.313   4.408   4.293 -0.5884  0.5636  0.0612
 8831SOL     OW35095   4.952   5.366   5.115 -0.6052 -0.9540  0.5459
 8831SOL    HW235096   5.007   5.444   5.128  1.9176 -2.3324 -0.9695
 8831SOL    HW335097   4.863   5.399   5.112  0.2060  1.6013  1.9623
 8831SOL    MW435098   4.948   5.381   5.116  0.3400  0.4960 -0.1616
 8832SOL     OW35099   0.221   2.253   4.889 -0.1650 -0.3645 -0.5463
 8832SOL    HW235100   0.238   2.295   4.805 -0.7153 -1.8552 -1.4307
 8832SOL    HW335101   0.246   2.319   4.954  1.5387  0.3318 -1.8431
 8832SOL    MW435102   0.226   2.267   4.887  0.7043 -0.1392  0.4156
 8833SOL     OW35103   0.483   1.932   4.190  0.6500 -0.1858 -0.1852
 8833SOL    HW235104   0.517   1.887   4.268  1.8632 -0.4860 -0.8759
 8833SOL    HW335105   0.395   1.961   4.217  0.6133 -1.2244  0.9347
 8833SOL    MW435106   0.476   1.930   4.204 -0.0590  0.6721  0.1137
 8834SOL     OW35107   6.322   4.582   2.570 -0.2708  0.1046  0.0098
 8834SOL    HW235108   6.348   4.588   2.662 -0.3340 -2.4686  0.2697
 8834SOL    HW335109   6.359   4.498   2.541  0.5833  1.3067 -2.6122
 8834SOL    MW435110   6.330   4.571   2.578  0.2945 -0.2342 -0.0873
 8835SOL     OW35111   2.925   3.074   3.120  0.4094 -0.6589  0.2274
 8835SOL    HW235112   2.956   3.159   3.151 -1.4445  0.2763 -0.3109
 8835SOL    HW335113   2.933   3.077   3.025 -0.5218 -0.6935  0.1322
 8835SOL    MW435114   2.930   3.085   3.112 -0.3294  0.4197 -0.6112
 8836SOL     OW35115   3.024   3.036   2.026  0.0013 -0.1525  0.2524
 8836SOL    HW235116   2.972   3.104   2.069  0.3384  0.2271  0.0659
 8836SOL    HW335117   2.989   3.031   1.937 -0.2438 -0.4580  0.3654
 8836SOL    MW435118   3.012   3.044   2.020  0.4105  0.1476  0.5795
 8837SOL     OW35119   4.774   1.432   2.191  0.4614 -0.0524 -0.1617
 8837SOL    HW235120   4.788   1.390   2.276 -2.4637  0.5026  0.7120
 8837SOL    HW335121   4.794   1.524   2.206  0.0990  0.0184 -0.0969
 8837SOL    MW435122   4.778   1.439   2.204  0.0813 -0.0878  0.5133
 8838SOL     OW35123   5.507   4.136   5.941  0.4553 -0.5525  0.3479
 8838SOL    HW235124   5.509   4.121   5.847  0.9740 -2.7919  0.6511
 8838SOL    HW335125   5.524   4.229   5.951 -1.6280  0.1641 -1.8361
 8838SOL    MW435126   5.510   4.146   5.930 -0.6004  0.1726  0.1960
 8839SOL     OW35127   3.683   4.521   2.665  0.0090  0.2455 -0.6080
 8839SOL    HW235128   3.676   4.427   2.651 -0.9105  0.4080 -1.3351
 8839SOL    HW335129   3.595   4.549   2.692  0.1751  0.9515 -0.7612
 8839SOL    MW435130   3.671   4.512   2.667  0.1687 -0.6714  0.4153
 8840SOL     OW35131   3.149   1.954   3.930  0.0867 -0.3407 -0.0477
 8840SOL    HW235132   3.084   1.932   3.996  0.0591 -0.2246 -0.0353
 8840SOL    HW335133   3.100   2.002   3.863 -0.0133 -1.0115 -0.4650
 8840SOL    MW435134   3.134   1.957   3.930 -0.2800 -0.4379  0.1912
 8841SOL     OW35135   4.553   0.239   2.459 -0.6245  0.3328 -0.1394
 8841SOL    HW235136   4.613   0.267   2.528  0.0785 -1.7589  0.1699
 8841SOL    HW335137   4.470   0.283   2.480  0.2605  1.7459  0.5410
 8841SOL    MW435138   4.550   0.249   2.471  0.3130 -0.2361  0.0877
 8842SOL     OW35139   0.596   0.909   3.757 -0.1776  0.8163 -0.3681
 8842SOL    HW235140   0.504   0.927   3.736 -0.6775 -1.7862 -0.7519
 8842SOL    HW335141   0.642   0.989   3.732 -2.3640  2.3673  0.2588
 8842SOL    MW435142   0.590   0.922   3.751 -0.0469  0.3850  0.6244
 8843SOL     OW35143   2.330   4.505   6.005 -0.2310 -0.2688 -0.0503
 8843SOL    HW235144   2.278   4.426   6.023  2.0177 -1.5561  1.3152
 8843SOL    HW335145   2.276   4.577   6.038 -1.4059 -1.4675  0.7434
 8843SOL    MW435146   2.316   4.504   6.012  0.4197  0.6916  0.6564
 8844SOL     OW35147   5.419   3.897   5.507  0.0728  0.2561  0.0162
 8844SOL    HW235148   5.439   3.981   5.547  1.6170 -0.9399  1.9377
 8844SOL    HW335149   5.504   3.860   5.485 -0.6249 -0.4056 -1.7549
 8844SOL    MW435150   5.433   3.903   5.509 -0.4096 -0.0690  0.4834
 8845SOL     OW35151   2.046   0.206   3.105  0.1873  0.5517 -0.0505
 8845SOL    HW235152   2.079   0.293   3.082  0.9914  0.3760  0.4063
 8845SOL    HW335153   2.104   0.176   3.175 -0.3965 -0.1461  0.1464
 8845SOL    MW435154   2.058   0.213   3.111  0.0169  0.4685 -0.0436
 8846SOL     OW35155   4.662   2.256   4.852 -0.3847  0.2616  0.2407
 8846SOL    HW235156   4.655   2.308   4.772  0.4432 -0.9327 -0.6502
 8846SOL    HW335157   4.683   2.168   4.821 -0.9140 -0.4223  1.7415
 8846SOL    MW435158   4.664   2.251   4.837 -0.1710  0.1492 -0.2121
 8847SOL     OW35159   2.883   2.067   3.877  0.2913  0.1727  0.1477
 8847SOL    HW235160   2.873   2.029   3.790 -0.7340  0.3323  0.1882
 8847SOL    HW335161   2.810   2.032   3.927 -0.3374  1.7191  0.3581
 8847SOL    MW435162   2.872   2.058   3.872  0.2394  0.0937  0.0643
 8848SOL     OW35163   0.228   3.842   1.222 -0.1579  0.4700 -0.2028
 8848SOL    HW235164   0.188   3.820   1.138 -1.0089 -0.9170  0.5079
 8848SOL    HW335165   0.285   3.768   1.242  0.3659  0.9822  0.2380
 8848SOL    MW435166   0.230   3.829   1.214 -0.4783 -0.2773  0.1871
 8849SOL     OW35167   4.734   3.562   0.576 -0.3880  0.2211  0.3241
 8849SOL    HW235168   4.667   3.592   0.636  0.0501 -0.0367  0.9488
 8849SOL    HW335169   4.791   3.638   0.563 -0.5473  0.3101  0.1413
 8849SOL    MW435170   4.733   3.576   0.582  0.0098  0.4976  0.6882
 8850SOL     OW35171   3.548   1.291   0.806  0.4786 -0.2929  0.2711
 8850SOL    HW235172   3.452   1.293   0.800  0.4094 -0.5031  1.2452
 8850SOL    HW335173   3.577   1.315   0.718 -0.4504  1.5964  0.4376
 8850SOL    MW435174   3.539   1.294   0.793 -0.0473 -0.3670 -0.1141
 8851SOL     OW35175   1.833   3.389   2.440 -0.1534 -0.1089  0.9591
 8851SOL    HW235176   1.831   3.482   2.417 -2.0045  0.1644  1.9805
 8851SOL    HW335177   1.764   3.349   2.386  0.2395 -0.7747  0.9434
 8851SOL    MW435178   1.823   3.396   2.430  0.2140  0.1704  0.4869
 8852SOL     OW35179   3.841   0.997   5.185 -0.3764 -0.6274 -0.0047
 8852SOL    HW235180   3.758   0.974   5.143 -0.1480 -0.3370 -0.6315
 8852SOL    HW335181   3.822   0.995   5.279 -1.1857 -0.2045 -0.1538
 8852SOL    MW435182   3.828   0.994   5.192  0.5588 -0.1759 -0.1483
 8853SOL     OW35183   4.451   0.328   3.945  0.2505  0.2801 -0.2263
 8853SOL    HW235184   4.428   0.306   3.854  1.6010  0.0968 -0.5431
 8853SOL    HW335185   4.374   0.373   3.979 -1.1915 -1.6909 -0.7223
 8853SOL    MW435186   4.438   0.331   3.937  0.2777 -0.2604  0.0823
 8854SOL     OW35187   0.141   4.488   4.885 -0.0172 -0.0915 -0.0778
 8854SOL    HW235188   0.112   4.403   4.919  0.7799 -0.2533  0.2281
 8854SOL    HW335189   0.161   4.539   4.964 -2.0896  0.9912 -0.1882
 8854SOL    MW435190   0.139   4.483   4.900  0.5171 -0.1552 -0.0953
 8855SOL     OW35191   2.645   3.235   3.364 -0.0464  0.1554 -0.4200
 8855SOL    HW235192   2.663   3.250   3.271 -0.8345  0.4593 -0.5277
 8855SOL    HW335193   2.673   3.315   3.407  1.3940 -0.4097 -0.2319
 8855SOL    MW435194   2.651   3.247   3.357  0.0499  0.5841 -0.9727
 8856SOL     OW35195   0.329   3.483   6.144  0.0473  0.2225 -0.1674
 8856SOL    HW235196   0.419   3.500   6.170  0.2852 -0.4489 -0.5315
 8856SOL    HW335197   0.315   3.390   6.164 -0.4358  0.2257 -0.4705
 8856SOL    MW435198   0.339   3.473   6.150  0.1739 -0.1173  0.1575
 8857SOL     OW35199   2.740   3.960   1.706 -0.1938 -0.0952  0.1488
 8857SOL    HW235200   2.781   4.041   1.677 -1.3602  0.5484  0.2566
 8857SOL    HW335201   2.811   3.895   1.702  0.4895  0.6749 -0.9713
 8857SOL    MW435202   2.755   3.962   1.701 -0.0929 -0.2727  0.4895
 8858SOL     OW35203   2.312   0.788   4.505 -0.1633 -0.1836 -0.1552
 8858SOL    HW235204   2.226   0.747   4.494 -0.4535  0.1534  0.7402
 8858SOL    HW335205   2.302   0.875   4.468  0.6877 -1.1182 -2.8035
 8858SOL    MW435206   2.299   0.794   4.499  0.5270 -0.1763 -0.1224
 8859SOL     OW35207   5.838   2.211   2.900  0.0247  0.1844  0.0558
 8859SOL    HW235208   5.760   2.196   2.847  0.4633  0.8135 -0.8045
 8859SOL    HW335209   5.908   2.225   2.836  0.7279  0.1952  0.8065
 8859SOL    MW435210   5.837   2.211   2.885  0.4103  0.2907  0.0355
 8860SOL     OW35211   0.932   3.318   0.160  0.5282 -0.0921  0.1718
 8860SOL    HW235212   0.908   3.243   0.215 -0.6742 -0.6495 -1.0359
 8860SOL    HW335213   0.953   3.387   0.222  1.2168 -1.2784  1.3291
 8860SOL    MW435214   0.931   3.317   0.176  0.3097 -0.0660  0.4703
 8861SOL     OW35215   0.256   0.776   4.592 -0.1166  0.2740  0.2857
 8861SOL    HW235216   0.162   0.777   4.611 -0.1227 -1.8694  0.6367
 8861SOL    HW335217   0.261   0.784   4.497 -0.8811 -2.5056 -0.0710
 8861SOL    MW435218   0.244   0.777   4.582  0.3324  0.2888  0.9247
 8862SOL     OW35219   4.391   0.757   5.402  0.3226 -0.3868 -0.1307
 8862SOL    HW235220   4.457   0.750   5.471  0.6014  1.3280 -0.1770
 8862SOL    HW335221   4.324   0.815   5.438  0.6040  0.7567 -1.3655
 8862SOL    MW435222   4.391   0.763   5.416  0.2345 -0.2576  0.2643
 8863SOL     OW35223   5.105   5.165   6.168 -0.1264  0.0561 -0.0614
 8863SOL    HW235224   5.122   5.256   6.144 -0.8178  0.4194  0.7447
 8863SOL    HW335225   5.009   5.161   6.177 -0.0732 -0.6625  0.2302
 8863SOL    MW435226   5.094   5.176   6.166  0.1660 -0.0580 -0.5732
 8864SOL     OW35227   0.298   4.365   5.158  0.4458 -0.0781 -0.8177
 8864SOL    HW235228   0.209   4.334   5.143  0.8688 -2.8520  1.4692
 8864SOL    HW335229   0.287   4.451   5.198 -1.1874 -0.2803 -0.7776
 8864SOL    MW435230   0.285   4.372   5.161  0.0762 -0.2605  0.0267
 8865SOL     OW35231   5.637   4.589   1.426  0.0109 -0.3190  0.0963
 8865SOL    HW235232   5.579   4.523   1.387 -0.4505 -0.1018  0.4059
 8865SOL    HW335233   5.611   4.592   1.518  0.9577 -0.6852  0.3839
 8865SOL    MW435234   5.626   4.580   1.433 -0.3063  0.2164  0.1829
 8866SOL     OW35235   4.975   1.135   2.068  0.2184 -0.1311  0.2785
 8866SOL    HW235236   4.954   1.218   2.025 -0.6159 -2.1385 -3.5898
 8866SOL    HW335237   4.894   1.084   2.062  0.9974 -1.6318  1.7318
 8866SOL    MW435238   4.961   1.139   2.062 -0.7091 -0.5050  0.4231
 8867SOL     OW35239   5.763   1.764   4.956 -0.2351 -0.2200  0.1006
 8867SOL    HW235240   5.729   1.756   4.867  0.3647 -1.8968 -0.0105
 8867SOL    HW335241   5.839   1.821   4.947 -0.7950  0.4988 -0.2597
 8867SOL    MW435242   5.768   1.771   4.943  0.0353 -0.1434  0.0340
 8868SOL     OW35243   0.522   3.198   0.754 -0.0381 -0.1758 -0.3093
 8868SOL    HW235244   0.446   3.199   0.812  0.2758 -1.1548  0.1262
 8868SOL    HW335245   0.524   3.287   0.717 -0.2602  0.4674  1.1444
 8868SOL    MW435246   0.512   3.210   0.756  0.1157 -0.6017  0.2701
 8869SOL     OW35247   2.391   6.393   0.300  0.0826  0.1179  0.0253
 8869SOL    HW235248   2.332   6.338   0.351  0.2315 -0.7462 -0.7156
 8869SOL    HW335249   2.479   6.372   0.333  0.1327  0.0020 -0.1863
 8869SOL    MW435250   2.395   6.383   0.311 -0.1332  0.2987 -0.3585
 8870SOL     OW35251   1.200   3.840   6.343  0.8539 -0.3182  0.3388
 8870SOL    HW235252   1.191   3.799   6.429  0.8129  0.7261  0.8411
 8870SOL    HW335253   1.122   3.812   6.295  1.0628 -1.2088  0.5047
 8870SOL    MW435254   1.188   3.831   6.348 -0.6764 -0.0847 -0.8164
 8871SOL     OW35255   1.784   4.831   1.870 -0.1624  0.1115 -0.8172
 8871SOL    HW235256   1.713   4.871   1.820 -1.4014  0.1488  0.8828
 8871SOL    HW335257   1.741   4.759   1.918  1.3436 -1.0916 -1.2032
 8871SOL    MW435258   1.769   4.826   1.870  0.2501  0.5408  0.0038
 8872SOL     OW35259   1.595   0.762   5.937  0.1572 -0.1445  0.2506
 8872SOL    HW235260   1.572   0.756   5.845  1.3907 -0.2288 -0.0591
 8872SOL    HW335261   1.519   0.726   5.983 -1.0943  1.2404 -0.6427
 8872SOL    MW435262   1.582   0.756   5.931 -0.4934 -0.2364  0.0899
 8873SOL     OW35263   1.412   3.046   2.897 -0.3878  0.1814 -0.1770
 8873SOL    HW235264   1.439   2.967   2.851  0.5775 -0.0130  0.6713
 8873SOL    HW335265   1.318   3.052   2.883 -0.3895 -0.8497 -0.6578
 8873SOL    MW435266   1.403   3.037   2.889  0.1249  0.1136  0.1098
 8874SOL     OW35267   6.313   2.481   0.952 -0.1777 -0.3563 -0.2448
 8874SOL    HW235268   6.322   2.546   0.882  0.5423 -0.7328 -0.5064
 8874SOL    HW335269   6.328   2.397   0.909  1.5635 -0.5158  0.5742
 8874SOL    MW435270   6.316   2.478   0.937 -0.3731 -0.2320  0.2874
 8875SOL     OW35271   3.447   3.886   4.739  0.2652 -0.2361 -0.0797
 8875SOL    HW235272   3.381   3.819   4.724  0.3116  0.0559 -1.7503
 8875SOL    HW335273   3.522   3.859   4.686  0.1326  1.3133 -1.1205
 8875SOL    MW435274   3.448   3.874   4.730 -0.0082 -0.2882  0.9859
 8876SOL     OW35275   5.668   2.400   6.019 -0.1845  0.0873 -0.3040
 8876SOL    HW235276   5.747   2.353   5.993  0.0735  0.3303  0.0209
 8876SOL    HW335277   5.676   2.486   5.978 -1.2835 -0.5678 -1.9750
 8876SOL    MW435278   5.679   2.405   6.010 -0.3910 -0.6819 -0.1246
 8877SOL     OW35279   3.103   1.465   1.203 -0.1583 -0.0214  0.1610
 8877SOL    HW235280   3.167   1.472   1.274  0.5993 -1.1890 -0.3853
 8877SOL    HW335281   3.018   1.461   1.248  0.3117 -0.7754  1.0011
 8877SOL    MW435282   3.100   1.466   1.219  0.1144  0.0365  0.0617
 8878SOL     OW35283   2.140   1.262   6.345 -0.7367  0.5140 -0.0122
 8878SOL    HW235284   2.118   1.281   6.436  0.0050  0.5320  0.1706
 8878SOL    HW335285   2.178   1.344   6.313 -0.0967  0.2027 -0.0461
 8878SOL    MW435286   2.142   1.276   6.353  0.7071  0.2196 -0.1588
 8879SOL     OW35287   0.672   5.931   4.079 -0.5108  0.8665  0.3373
 8879SOL    HW235288   0.744   5.983   4.113  2.5961 -1.5311 -1.9242
 8879SOL    HW335289   0.713   5.850   4.049 -4.2526 -0.8404 -0.8416
 8879SOL    MW435290   0.687   5.927   4.079 -0.4590 -0.0411 -0.4077
 8880SOL     OW35291   2.554   2.950   5.167 -0.4367 -1.0034  0.1499
 8880SOL    HW235292   2.580   3.001   5.091 -0.7761  0.1554  0.7910
 8880SOL    HW335293   2.582   2.861   5.147 -0.1145 -0.6324 -1.1262
 8880SOL    MW435294   2.561   2.945   5.154 -0.3429 -0.3673  0.3291
 8881NA      NA35295   0.281   3.001   3.050 -0.1425  0.0802  0.0102
 8882NA      NA35296   1.063   0.146   1.259 -0.1129  0.1124  0.7164
 8883NA      NA35297   2.723   6.406   2.486 -0.1553  0.2736 -0.1904
 8884NA      NA35298   5.012   4.296   6.414  0.0820 -0.4865 -0.1122
 8885NA      NA35299   2.101   1.772   1.258  0.4194  0.2516 -0.4161
 8886NA      NA35300   2.310   2.110   4.314  0.2603 -0.3739  0.4562
 8887NA      NA35301   1.618   6.326   0.546 -0.1663  0.5703 -0.4588
   6.42840   6.42840   6.42840
