A-SYNC WITH LIG-47 in water
35301
  121NASP     N    1   3.747   1.530   4.164  0.3030 -0.5640  0.0651
  121NASP    H1    2   3.693   1.609   4.131 -0.3849 -0.6858  0.8628
  121NASP    H2    3   3.768   1.543   4.261 -0.0106  1.2434 -0.0831
  121NASP    H3    4   3.701   1.442   4.143  2.2485 -1.7952  0.6871
  121NASP    CA    5   3.881   1.516   4.095 -0.3325  0.0875  0.2168
  121NASP    HA    6   3.868   1.499   3.988  2.1089  0.2977 -0.1605
  121NASP    CB    7   3.967   1.639   4.118 -0.5109  0.4349  0.8898
  121NASP   HB1    8   4.039   1.639   4.036 -1.0821 -1.3541  0.3600
  121NASP   HB2    9   4.036   1.633   4.202  1.3120  2.3598 -0.3480
  121NASP    CG   10   3.902   1.774   4.113 -0.7168 -1.1866 -0.1170
  121NASP   OD1   11   3.967   1.876   4.145  0.3369 -0.1700  0.4417
  121NASP   OD2   12   3.780   1.781   4.088 -0.3699  0.0268 -0.1149
  121NASP     C   13   3.950   1.382   4.139 -0.0310  0.1502  0.1778
  121NASP     O   14   3.923   1.343   4.255 -0.1467 -0.0856  0.6346
  122ASN      N   15   4.046   1.330   4.060  0.2016  0.1740  0.1936
  122ASN      H   16   4.053   1.365   3.966 -1.5240  1.0637  0.3427
  122ASN     CA   17   4.148   1.239   4.119 -0.0956 -0.4291  0.1911
  122ASN     HA   18   4.100   1.151   4.162  0.1943 -1.5626 -1.6672
  122ASN     CB   19   4.223   1.176   4.001 -1.2127 -0.1787 -0.5095
  122ASN    HB1   20   4.306   1.114   4.037  1.4104  3.4099  0.1371
  122ASN    HB2   21   4.265   1.259   3.945  0.6557 -0.2891  0.6246
  122ASN     CG   22   4.132   1.097   3.907  0.8095  0.2622  0.1314
  122ASN    OD1   23   4.017   1.066   3.940  0.7539 -0.3311 -0.1275
  122ASN    ND2   24   4.185   1.053   3.797  0.4113  0.0711 -0.2417
  122ASN   HD21   25   4.145   0.976   3.746  1.1960 -1.1890  0.9638
  122ASN   HD22   26   4.280   1.079   3.774 -0.0578  4.8124  1.8530
  122ASN      C   27   4.231   1.316   4.221 -0.1927 -0.1293  0.4454
  122ASN      O   28   4.305   1.410   4.184 -0.0240  0.2900  0.6812
  123GLU      N   29   4.232   1.264   4.347  0.7216  0.3988  0.4779
  123GLU      H   30   4.146   1.214   4.367  1.2598 -0.6299  0.2593
  123GLU     CA   31   4.318   1.327   4.454 -0.4531 -0.5553  0.1368
  123GLU     HA   32   4.402   1.386   4.418  0.0743 -0.3183  1.7042
  123GLU     CB   33   4.227   1.406   4.545  0.7337 -0.0280  0.2087
  123GLU    HB1   34   4.272   1.422   4.643  0.4785 -1.0551  0.5036
  123GLU    HB2   35   4.138   1.344   4.549  0.5609  0.0502 -1.4968
  123GLU     CG   36   4.178   1.538   4.481 -1.5071  0.2801 -0.3068
  123GLU    HG1   37   4.118   1.515   4.393  0.4866  0.6730 -1.8400
  123GLU    HG2   38   4.256   1.605   4.445  0.3276 -1.5481  0.0979
  123GLU     CD   39   4.095   1.622   4.581 -1.2577  0.1461 -0.9994
  123GLU    OE1   40   4.031   1.721   4.545  0.0507 -0.3856 -0.2359
  123GLU    OE2   41   4.080   1.582   4.702 -0.3145  0.4695  0.0572
  123GLU      C   42   4.391   1.222   4.531 -0.3692  0.3810 -0.0616
  123GLU      O   43   4.443   1.252   4.639  0.9176  0.2027  0.2091
  124ALA      N   44   4.401   1.095   4.490 -0.7322 -0.3925  0.2860
  124ALA      H   45   4.358   1.076   4.401 -1.5705  3.9385 -0.4446
  124ALA     CA   46   4.462   0.980   4.557  0.7610  0.1770  0.1140
  124ALA     HA   47   4.459   0.995   4.665  0.7006  1.9310 -0.1088
  124ALA     CB   48   4.393   0.850   4.532  0.0981  0.6665 -0.0482
  124ALA    HB1   49   4.391   0.806   4.432  0.5003  0.2022  0.1475
  124ALA    HB2   50   4.290   0.878   4.557 -0.1949 -0.6557  0.2983
  124ALA    HB3   51   4.422   0.769   4.600  1.6605 -0.2820 -1.7479
  124ALA      C   52   4.617   0.977   4.537  0.3123 -0.1701  0.1912
  124ALA      O   53   4.678   0.892   4.469  0.5516  0.0480 -0.4895
  125TYR      N   54   4.689   1.080   4.588  0.0421 -0.6802 -0.0324
  125TYR      H   55   4.636   1.140   4.650 -0.1467 -0.5027 -0.3672
  125TYR     CA   56   4.837   1.101   4.575  0.1094  0.0136  0.3331
  125TYR     HA   57   4.893   1.009   4.559  0.8783  0.4902  0.2627
  125TYR     CB   58   4.864   1.174   4.446 -0.2900 -0.5822  0.4135
  125TYR    HB1   59   4.863   1.100   4.366 -3.5775 -1.5115  1.1890
  125TYR    HB2   60   4.968   1.207   4.457 -0.9532  0.7718  3.8101
  125TYR     CG   61   4.790   1.303   4.420  0.5025  0.1363 -0.5561
  125TYR    CD1   62   4.716   1.314   4.305  0.3797 -0.5398 -0.3595
  125TYR    HD1   63   4.699   1.225   4.247 -1.2346 -0.0758 -0.6519
  125TYR    CE1   64   4.631   1.428   4.287  0.5234 -0.0984  0.0659
  125TYR    HE1   65   4.556   1.431   4.209  0.2120  0.2899  0.3783
  125TYR     CZ   66   4.626   1.535   4.380 -0.1529 -0.1216 -0.0390
  125TYR     OH   67   4.542   1.644   4.371 -0.6762 -0.5797  0.0532
  125TYR     HH   68   4.489   1.632   4.291  1.5003  0.6470 -1.6898
  125TYR    CE2   69   4.710   1.527   4.494  0.4879  0.3033 -0.3401
  125TYR    HE2   70   4.705   1.604   4.571 -2.7688 -0.0549 -0.0819
  125TYR    CD2   71   4.800   1.414   4.509 -0.0349  0.5238 -0.1822
  125TYR    HD2   72   4.860   1.411   4.599 -0.8902  2.8699  0.5319
  125TYR      C   73   4.905   1.163   4.692 -0.3872 -0.0898 -0.0022
  125TYR      O   74   4.843   1.228   4.774  0.0727  0.6587 -0.1633
  126GLU      N   75   5.036   1.147   4.714  0.0584  0.0438  0.1489
  126GLU      H   76   5.090   1.091   4.649 -1.2893  0.7094 -1.6443
  126GLU     CA   77   5.113   1.233   4.807  0.1057  0.3327  0.3725
  126GLU     HA   78   5.034   1.274   4.869 -0.3384  0.8941 -0.5314
  126GLU     CB   79   5.204   1.153   4.897  1.0281 -0.4953 -0.0424
  126GLU    HB1   80   5.138   1.077   4.939 -0.6743  0.5810 -0.6303
  126GLU    HB2   81   5.239   1.227   4.969 -0.8888  1.0767 -0.6409
  126GLU     CG   82   5.322   1.094   4.825 -0.1606  0.7179  0.0978
  126GLU    HG1   83   5.392   1.166   4.782 -0.8588 -0.1762 -2.7778
  126GLU    HG2   84   5.295   1.042   4.733 -1.9041  0.6156  0.6322
  126GLU     CD   85   5.397   0.994   4.919  0.2295 -0.2494  0.1396
  126GLU    OE1   86   5.435   1.035   5.031  0.4180 -0.2936  0.1807
  126GLU    OE2   87   5.421   0.878   4.879  0.1233  0.1335  0.1490
  126GLU      C   88   5.173   1.360   4.745  0.1977  0.6836 -0.0256
  126GLU      O   89   5.239   1.443   4.804 -0.2816 -0.0517  0.2486
  127MET      N   90   5.171   1.364   4.612 -0.4616 -0.1359  0.0172
  127MET      H   91   5.137   1.285   4.559  0.7655  0.6418 -2.0611
  127MET     CA   92   5.214   1.481   4.526  0.4312 -0.4977  0.4856
  127MET     HA   93   5.206   1.567   4.592  1.4277  1.0797 -1.3495
  127MET     CB   94   5.366   1.478   4.508  0.4364 -0.2160  0.4260
  127MET    HB1   95   5.391   1.398   4.438 -1.2718 -1.2905  0.9657
  127MET    HB2   96   5.411   1.438   4.599 -1.4653 -0.4345  1.3303
  127MET     CG   97   5.437   1.603   4.463 -0.6731 -0.6859  0.0813
  127MET    HG1   98   5.382   1.631   4.373 -2.2148  0.2686  1.2766
  127MET    HG2   99   5.539   1.571   4.439 -0.4909 -0.6660  0.8068
  127MET     SD  100   5.449   1.745   4.569  0.2600  0.2853  0.3477
  127MET     CE  101   5.546   1.851   4.455  0.3329  0.1313 -0.0780
  127MET    HE1  102   5.613   1.782   4.404  0.7447  0.7244 -0.3545
  127MET    HE2  103   5.614   1.911   4.515  0.5652  0.5690 -0.7593
  127MET    HE3  104   5.480   1.913   4.394 -0.3986 -0.9518 -0.4135
  127MET      C  105   5.130   1.500   4.400  0.3252  0.3278 -0.1999
  127MET      O  106   5.115   1.405   4.318 -0.0448  0.1370  0.3257
  128PRO      N  107   5.063   1.615   4.388 -0.1069  0.3975  0.1472
  128PRO     CD  108   5.069   1.732   4.474 -0.3552  0.0593 -0.1485
  128PRO    HD1  109   5.170   1.761   4.500  0.2219 -1.9269  0.0146
  128PRO    HD2  110   5.009   1.711   4.562 -1.0145 -2.2251 -1.0440
  128PRO     CG  111   5.001   1.852   4.390 -0.5957 -0.0160 -0.0043
  128PRO    HG1  112   5.084   1.912   4.354 -0.0596  0.9555  2.6292
  128PRO    HG2  113   4.935   1.913   4.452 -2.4512 -2.3052  0.4218
  128PRO     CB  114   4.912   1.785   4.286  0.0117 -0.3282 -0.3759
  128PRO    HB1  115   4.813   1.776   4.329  0.0246  1.0008 -0.0127
  128PRO    HB2  116   4.909   1.844   4.194  0.7982  2.6430  1.3477
  128PRO     CA  117   4.969   1.643   4.272 -0.0350  0.2573  1.2185
  128PRO     HA  118   4.889   1.575   4.301  0.9378 -1.7339 -0.5573
  128PRO      C  119   5.034   1.630   4.124 -0.0001 -0.3245 -0.1611
  128PRO      O  120   5.155   1.642   4.107  0.2620  0.2044  0.1856
  129SER      N  121   4.956   1.613   4.019  0.8514  0.3446 -0.4905
  129SER      H  122   4.857   1.603   4.034  0.7622 -0.9760 -1.8051
  129SER     CA  123   5.016   1.575   3.888  0.3362 -0.3209 -0.3481
  129SER     HA  124   5.096   1.503   3.904  0.8169 -0.3439 -2.5357
  129SER     CB  125   4.912   1.494   3.802 -0.1664 -1.0413  0.3919
  129SER    HB1  126   4.880   1.405   3.855  1.8823  0.2422  4.1445
  129SER    HB2  127   4.958   1.461   3.709 -1.5394 -0.9628 -0.3398
  129SER     OG  128   4.802   1.579   3.761 -0.6334  0.5432 -0.2521
  129SER    HG1  129   4.785   1.591   3.667 -3.8339  1.3170  0.3306
  129SER      C  130   5.064   1.695   3.810 -0.1706 -0.5274 -0.1149
  129SER      O  131   4.996   1.798   3.808 -0.4608 -0.0787  0.2265
  130GLU      N  132   5.178   1.679   3.738  0.5078  1.2310  0.0141
  130GLU      H  133   5.210   1.583   3.740  0.7586  1.2730 -1.2507
  130GLU     CA  134   5.219   1.775   3.642  0.3005  0.0404 -0.3267
  130GLU     HA  135   5.137   1.848   3.637 -0.6152 -0.7667  1.9478
  130GLU     CB  136   5.338   1.849   3.709  0.0133  0.2507 -0.2834
  130GLU    HB1  137   5.301   1.885   3.805 -1.8450 -2.1078 -0.0024
  130GLU    HB2  138   5.358   1.936   3.647 -0.8813  0.9341  0.3501
  130GLU     CG  139   5.461   1.761   3.715 -0.3877 -0.0270 -0.1674
  130GLU    HG1  140   5.516   1.742   3.623 -0.7212 -0.9144 -0.2018
  130GLU    HG2  141   5.440   1.662   3.758 -0.3384 -0.4358 -1.0595
  130GLU     CD  142   5.568   1.817   3.809 -0.2161  0.2179 -0.9698
  130GLU    OE1  143   5.536   1.854   3.928  0.8383  0.1466 -0.0827
  130GLU    OE2  144   5.686   1.825   3.771  0.5140 -0.0642 -0.3694
  130GLU      C  145   5.255   1.737   3.494 -0.1628 -0.1702  0.6444
  130GLU      O  146   5.275   1.618   3.472 -0.3668  0.3149 -0.0951
  131GLU      N  147   5.265   1.838   3.406 -0.0503 -0.7756  0.5680
  131GLU      H  148   5.268   1.933   3.441 -0.7834 -0.7454  0.5677
  131GLU     CA  149   5.317   1.814   3.265 -0.2350  0.8897  0.1563
  131GLU     HA  150   5.260   1.730   3.225  0.9646  0.7104 -1.2814
  131GLU     CB  151   5.288   1.939   3.176  0.2863 -0.7122 -0.8443
  131GLU    HB1  152   5.345   1.921   3.086  2.0765 -4.3988  0.8285
  131GLU    HB2  153   5.336   2.023   3.227  0.7446  0.2543 -2.7561
  131GLU     CG  154   5.143   1.966   3.135 -0.3101  0.1038  0.0285
  131GLU    HG1  155   5.096   1.873   3.104  0.9023 -1.4499  2.5033
  131GLU    HG2  156   5.141   2.031   3.048  1.0868 -1.6014 -1.3448
  131GLU     CD  157   5.064   2.039   3.238 -0.4411  0.3007 -0.0585
  131GLU    OE1  158   5.093   2.146   3.294  0.4784 -0.7373  0.7209
  131GLU    OE2  159   4.956   1.982   3.266  0.3757 -0.3427  0.2315
  131GLU      C  160   5.471   1.778   3.270  0.5383 -0.3609 -0.0658
  131GLU      O  161   5.543   1.842   3.345 -0.0503 -0.8450 -0.3657
  132GLY      N  162   5.527   1.671   3.202  0.6002 -0.1265  0.3788
  132GLY      H  163   5.463   1.602   3.168 -1.0547  1.5226  0.0107
  132GLY     CA  164   5.668   1.647   3.203  0.0128  0.3656 -0.2629
  132GLY    HA1  165   5.674   1.538   3.202  0.5513  0.3936 -0.3269
  132GLY    HA2  166   5.716   1.691   3.290  0.9503 -1.4678  0.1913
  132GLY      C  167   5.733   1.705   3.076  0.7341 -0.0894 -0.7986
  132GLY      O  168   5.696   1.675   2.967 -0.5320  0.2618  0.3941
  133TYR      N  169   5.828   1.798   3.099  0.1175  0.3208  0.0019
  133TYR      H  170   5.853   1.821   3.194  1.6364 -0.0346 -0.2937
  133TYR     CA  171   5.913   1.859   2.998  0.7840 -0.8475 -0.8597
  133TYR     HA  172   5.875   1.837   2.898  0.3584 -0.7539 -0.7200
  133TYR     CB  173   5.920   2.016   3.009 -0.2785  0.2170  0.1654
  133TYR    HB1  174   5.980   2.054   2.926  0.9576 -0.9544  0.4884
  133TYR    HB2  175   5.968   2.039   3.105  1.1312  0.7460 -0.6317
  133TYR     CG  176   5.782   2.085   3.019 -0.0787  0.3669 -0.0493
  133TYR    CD1  177   5.721   2.100   3.145  0.8369 -0.1265 -0.6778
  133TYR    HD1  178   5.778   2.061   3.229  3.0660  0.3098 -1.9057
  133TYR    CE1  179   5.594   2.161   3.144 -0.1273  0.3842 -0.9686
  133TYR    HE1  180   5.534   2.175   3.232 -0.2127  1.0217 -1.1246
  133TYR     CZ  181   5.535   2.211   3.030 -0.6006 -0.5228 -0.0259
  133TYR     OH  182   5.412   2.268   3.041  0.6241 -0.1375  0.1739
  133TYR     HH  183   5.384   2.293   2.953 -2.1340 -1.1975  0.6591
  133TYR    CE2  184   5.604   2.214   2.909 -0.2093 -0.7409  0.0396
  133TYR    HE2  185   5.571   2.253   2.814  2.9130 -0.4528 -1.0690
  133TYR    CD2  186   5.731   2.153   2.908  0.0482 -0.6109  0.2611
  133TYR    HD2  187   5.775   2.145   2.809 -2.5288 -0.2329 -1.0151
  133TYR      C  188   6.046   1.782   3.003  0.1909 -0.0423  0.0239
  133TYR      O  189   6.131   1.814   3.085  0.1988  0.3518 -0.2113
  134GLN      N  190   6.069   1.678   2.924 -0.1073 -0.1090 -0.3666
  134GLN      H  191   6.003   1.658   2.850  0.9525 -0.3168 -1.2824
  134GLN     CA  192   6.174   1.578   2.928  0.2464 -0.4147 -0.3680
  134GLN     HA  193   6.185   1.576   3.036  2.4286  0.3990 -0.5086
  134GLN     CB  194   6.132   1.442   2.876 -0.1394  0.3057  0.2792
  134GLN    HB1  195   6.106   1.437   2.770 -3.3647 -1.0272  1.0069
  134GLN    HB2  196   6.037   1.421   2.925 -1.5722 -1.2567 -2.8695
  134GLN     CG  197   6.231   1.320   2.905  0.4241 -0.8077 -0.5241
  134GLN    HG1  198   6.235   1.325   3.014 -1.5570  1.9430 -0.4668
  134GLN    HG2  199   6.326   1.332   2.853  2.0821  0.1305  2.4672
  134GLN     CD  200   6.183   1.182   2.870 -0.2495 -0.5256  0.3864
  134GLN    OE1  201   6.101   1.161   2.781  0.3949  0.5139 -0.1748
  134GLN    NE2  202   6.228   1.084   2.939  0.3955  0.0442 -0.0762
  134GLN   HE21  203   6.208   0.992   2.901  2.4735 -0.6151  0.2697
  134GLN   HE22  204   6.301   1.090   3.009 -0.6235 -2.6360  1.3820
  134GLN      C  205   6.311   1.624   2.870 -0.1382 -0.1157 -0.3435
  134GLN      O  206   6.319   1.714   2.784  0.2125 -0.1356 -0.4148
  135ASP      N  207   6.426   1.559   2.912 -0.0584 -0.2845 -0.3196
  135ASP      H  208   6.422   1.498   2.992 -0.4309 -0.9782 -0.8554
  135ASP     CA  209   6.556   1.596   2.854 -0.3548 -0.2172  0.1665
  135ASP     HA  210   6.561   1.701   2.828 -3.4848  0.0741  0.3147
  135ASP     CB  211   6.667   1.575   2.961 -1.1551  0.3713 -0.0738
  135ASP    HB1  212   6.640   1.648   3.038 -3.5078  1.3694 -1.7406
  135ASP    HB2  213   6.768   1.587   2.924 -0.5007 -0.4683  1.3088
  135ASP     CG  214   6.662   1.439   3.031 -0.3032  0.4869 -0.4623
  135ASP    OD1  215   6.758   1.362   3.034 -0.0406 -0.1051  0.3730
  135ASP    OD2  216   6.566   1.398   3.098  0.2428  0.2307  0.2011
  135ASP      C  217   6.589   1.525   2.725  0.6630  0.1951 -0.2714
  135ASP      O  218   6.521   1.422   2.696  0.4877 -0.4263  0.0070
  136TYR      N  219   6.694   1.562   2.658  0.2451  0.0722 -0.4195
  136TYR      H  220   6.751   1.636   2.698  1.6907 -1.6189  0.7748
  136TYR     CA  221   6.734   1.506   2.528 -0.3053 -0.0445  0.3348
  136TYR     HA  222   6.646   1.459   2.485  0.7315 -0.0900 -1.8670
  136TYR     CB  223   6.770   1.622   2.429  0.0693  0.0176  0.1032
  136TYR    HB1  224   6.686   1.690   2.429  0.5989  0.7281 -1.6259
  136TYR    HB2  225   6.767   1.587   2.325 -1.3531  1.1289 -0.2675
  136TYR     CG  226   6.901   1.692   2.462 -0.1406 -0.5428  0.5354
  136TYR    CD1  227   6.893   1.836   2.476  0.3009  0.0488  0.0686
  136TYR    HD1  228   6.793   1.876   2.477  0.1333 -0.3711  0.6433
  136TYR    CE1  229   7.002   1.912   2.494 -0.0243  0.0497  0.5156
  136TYR    HE1  230   6.985   2.017   2.510 -0.4674 -0.1755  1.5534
  136TYR     CZ  231   7.129   1.858   2.504  0.3521  0.1868 -0.0637
  136TYR     OH  232   7.235   1.934   2.520 -0.8135  0.0443 -0.3230
  136TYR     HH  233   7.199   2.023   2.521  1.5935  1.0940  1.2928
  136TYR    CE2  234   7.142   1.720   2.481  0.0578 -0.1313  0.0486
  136TYR    HE2  235   7.239   1.673   2.475 -0.3395 -0.7925 -3.0281
  136TYR    CD2  236   7.030   1.640   2.451  0.1686 -0.9969  1.0011
  136TYR    HD2  237   7.042   1.538   2.415 -2.1249 -0.5401 -1.4052
  136TYR      C  238   6.838   1.403   2.557 -0.2302 -0.5134 -0.0010
  136TYR      O  239   6.894   1.391   2.664 -0.0637 -0.6180 -0.8078
  137GLU      N  240   6.860   1.316   2.462  0.6460 -0.6280 -0.4157
  137GLU      H  241   6.787   1.328   2.393  0.8888 -0.5318 -0.6561
  137GLU     CA  242   6.973   1.224   2.461 -0.9897 -0.1733 -0.2034
  137GLU     HA  243   7.020   1.215   2.559 -0.5712  0.3730 -0.3490
  137GLU     CB  244   6.920   1.084   2.426 -0.0165 -0.4791  0.3280
  137GLU    HB1  245   7.003   1.029   2.381 -1.3953 -0.5279 -2.3482
  137GLU    HB2  246   6.843   1.094   2.350 -0.2095  1.4502  0.7389
  137GLU     CG  247   6.859   1.013   2.549 -0.1764  0.6600  0.6846
  137GLU    HG1  248   6.796   1.086   2.600 -0.1901  1.1916 -0.0697
  137GLU    HG2  249   6.937   0.992   2.623  2.5869 -0.1556 -2.2332
  137GLU     CD  250   6.776   0.890   2.518  0.4570  0.1912 -1.0450
  137GLU    OE1  251   6.790   0.786   2.588  0.1282  0.1754  0.3304
  137GLU    OE2  252   6.696   0.892   2.425  0.5350  0.3530  0.1900
  137GLU      C  253   7.068   1.267   2.352 -0.1010  0.3735 -0.3481
  137GLU      O  254   7.017   1.277   2.241 -0.0401 -0.3341  0.2616
  138PRO      N  255   7.196   1.290   2.390 -0.3178  0.2710  0.1030
  138PRO     CD  256   7.267   1.299   2.518 -0.0264 -0.4736  0.3470
  138PRO    HD1  257   7.301   1.201   2.548  0.2482 -1.1219 -1.9352
  138PRO    HD2  258   7.207   1.346   2.597 -2.2859 -0.1575 -1.4499
  138PRO     CG  259   7.382   1.394   2.488 -0.6815  0.0463  0.0377
  138PRO    HG1  260   7.463   1.391   2.561 -0.6656  0.6474  0.0555
  138PRO    HG2  261   7.330   1.490   2.488 -1.8484 -0.5661 -0.1938
  138PRO     CB  262   7.432   1.344   2.354  0.6451  0.1820  0.0014
  138PRO    HB1  263   7.494   1.426   2.316  2.2633 -0.3814  1.3114
  138PRO    HB2  264   7.494   1.259   2.380 -1.1195 -1.5588 -1.2624
  138PRO     CA  265   7.298   1.318   2.287  0.5573  0.3879  0.5113
  138PRO     HA  266   7.272   1.403   2.223  1.1605  0.9760  1.0251
  138PRO      C  267   7.322   1.194   2.197  0.6732 -0.1595  1.7940
  138PRO      O  268   7.283   1.081   2.229  0.3223 -0.1552 -0.4495
  139GLU      N  269   7.379   1.216   2.077 -1.2465  0.2142 -0.9965
  139GLU      H  270   7.401   1.313   2.056  2.1916 -0.5201 -1.3824
  139GLU     CA  271   7.422   1.116   1.980 -0.0325  0.2119  0.3426
  139GLU     HA  272   7.375   1.022   2.008 -0.6046  0.4217  0.1016
  139GLU     CB  273   7.376   1.162   1.838  0.0010 -0.0758  0.5067
  139GLU    HB1  274   7.425   1.096   1.766 -2.1684 -1.2174  0.0037
  139GLU    HB2  275   7.394   1.267   1.816  1.4168 -0.4512 -0.2312
  139GLU     CG  276   7.230   1.135   1.817 -0.0451 -0.4615  0.4358
  139GLU    HG1  277   7.165   1.205   1.870  0.9109  0.1882  0.7715
  139GLU    HG2  278   7.215   1.029   1.837 -0.2141  0.0045  3.0929
  139GLU     CD  279   7.185   1.148   1.667  0.3117 -0.4476 -0.0172
  139GLU    OE1  280   7.262   1.118   1.577 -0.2364  0.0220  0.9811
  139GLU    OE2  281   7.068   1.178   1.641  0.4180  0.2283 -0.1660
  139GLU      C  282   7.580   1.084   1.977  0.9241 -0.2605  0.4446
  139GLU      O  283   7.652   1.178   1.991  0.9193 -0.3920 -0.0261
  140CALA     N  284   7.619   0.956   1.961 -0.9439  0.3117  0.2957
  140CALA     H  285   7.546   0.889   1.945 -0.9976  0.6768 -1.0994
  140CALA    CA  286   7.757   0.911   1.964 -0.5992  0.2966 -0.3901
  140CALA    HA  287   7.799   0.958   2.053 -1.2049  0.5838 -0.2473
  140CALA    CB  288   7.765   0.751   1.971  0.1372  0.2083  0.0580
  140CALA   HB1  289   7.735   0.703   1.878 -1.7743  1.7018 -0.1758
  140CALA   HB2  290   7.704   0.710   2.051 -0.3765 -1.5568 -1.1708
  140CALA   HB3  291   7.864   0.718   2.004 -0.3238  0.8423  2.2464
  140CALA     C  292   7.851   0.957   1.851 -0.2060 -0.4162  0.1337
  140CALA   OC1  293   7.968   0.988   1.874  0.1975  0.6622  0.0540
  140CALA   OC2  294   7.813   0.946   1.731  0.0120  0.6031 -0.2245
  141L47      C  295   2.355   4.900   2.061 -0.3272  0.2646  0.0273
  141L47      H  296   2.316   4.798   2.056 -1.9895  0.8986 -0.5275
  141L47     H1  297   2.352   4.940   1.959 -0.9741  2.0784  0.7072
  141L47     H2  298   2.286   4.950   2.131  0.5697 -0.2180  1.2973
  141L47     C1  299   2.499   4.912   2.107 -0.1339 -0.6986 -0.2129
  141L47      O  300   2.537   4.997   2.189  0.6542  0.1426  0.1990
  141L47      N  301   2.593   4.826   2.039 -0.2163 -0.1021 -0.3893
  141L47     C2  302   2.564   4.741   1.935  1.0049 -0.0899  0.0425
  141L47     H3  303   2.505   4.801   1.864  0.6845  1.0012  1.1819
  141L47     H4  304   2.504   4.658   1.975  1.3045 -0.1647  0.3410
  141L47     C3  305   2.690   4.682   1.873  0.4330  0.2225 -0.4579
  141L47     H5  306   2.697   4.717   1.769 -1.2913  0.3668 -0.5597
  141L47     H6  307   2.689   4.572   1.874 -0.4834  0.2272 -0.2217
  141L47     C4  308   2.792   4.743   1.964 -0.3838 -0.4606  0.2227
  141L47     C5  309   2.732   4.818   2.061 -0.1800 -1.0768  0.1691
  141L47     C6  310   2.804   4.875   2.167 -0.1058 -0.1572  0.3696
  141L47     H7  311   2.747   4.916   2.250 -1.4536  1.1071 -1.1207
  141L47     C7  312   2.942   4.854   2.167 -0.2848 -0.4920 -0.5968
  141L47     H8  313   3.001   4.881   2.254  1.4740  0.5650 -2.0561
  141L47     C8  314   3.009   4.782   2.074  0.0545 -0.3230 -0.1468
  141L47     C9  315   2.933   4.731   1.963  0.2341  0.1731 -0.1452
  141L47     H9  316   2.983   4.677   1.883  0.8721 -0.8120  0.8811
  141L47      S  317   3.187   4.753   2.084 -0.0201  0.2740 -0.1589
  141L47     O1  318   3.230   4.697   1.960  0.6872  0.3537  0.3723
  141L47     O2  319   3.215   4.692   2.214  0.0624 -0.0837 -0.3055
  141L47     N1  320   3.251   4.904   2.087  0.5376  0.8563 -0.1956
  141L47    C10  321   3.187   5.004   1.998  0.0877  0.3779  0.6684
  141L47    H10  322   3.103   4.964   1.939 -0.0313  1.0264  0.3878
  141L47    H11  323   3.249   5.042   1.916  0.0450 -0.2480  0.3431
  141L47    C11  324   3.144   5.126   2.082  0.7356  0.4055  0.5087
  141L47    H12  325   3.079   5.094   2.164  0.3396  0.4629  0.2223
  141L47    H13  326   3.073   5.178   2.017  0.7913 -1.5007 -1.1702
  141L47    C12  327   3.255   5.219   2.130  0.2322  0.2831 -0.1414
  141L47    H14  328   3.208   5.291   2.197  1.3235 -0.4298  1.4425
  141L47    H15  329   3.299   5.268   2.043 -0.1619 -1.6247 -1.4882
  141L47     N2  330   3.356   5.142   2.204 -1.0263  0.0162 -0.0237
  141L47    H16  331   3.414   5.206   2.261 -0.3771  1.4807 -2.2145
  141L47    H17  332   3.313   5.075   2.269  1.8189 -0.1575  1.8791
  141L47    C13  333   3.450   5.057   2.113  0.5065  0.0910 -0.2027
  141L47    H18  334   3.549   5.057   2.159  1.4086  1.2913 -2.0294
  141L47    H19  335   3.468   5.099   2.014  0.4412 -0.5806 -0.5083
  141L47    C14  336   3.399   4.914   2.081 -0.5747  0.2688 -0.7484
  141L47    H20  337   3.448   4.872   1.992 -1.7850 -0.5308 -1.0641
  141L47    H21  338   3.451   4.853   2.156  1.7074  0.2934 -2.2012
  142SOL     OW  339   5.970   5.825   3.288  0.4035  0.0770 -0.8128
  142SOL    HW2  340   6.020   5.796   3.364 -0.4526 -1.8812 -0.9318
  142SOL    HW3  341   6.034   5.870   3.233  1.0374  1.5699  1.0186
  142SOL    MW4  342   5.985   5.827   3.291  0.5721 -0.3436 -0.0656
  143SOL     OW  343   3.812   6.393   3.332 -0.1139 -0.2222  0.2858
  143SOL    HW2  344   3.840   6.485   3.327 -0.2084 -0.1226  1.2415
  143SOL    HW3  345   3.892   6.343   3.320  0.2799  0.0349  1.6017
  143SOL    MW4  346   3.826   6.399   3.330 -0.0899  0.3781 -0.3678
  144SOL     OW  347   4.184   6.202   5.942 -0.3345  0.1386 -0.2380
  144SOL    HW2  348   4.253   6.258   5.907 -0.6158  0.5472 -0.1501
  144SOL    HW3  349   4.217   6.174   6.027  0.1532 -0.4874 -0.6268
  144SOL    MW4  350   4.198   6.206   5.949 -0.0824 -0.5591 -0.5998
  145SOL     OW  351   0.087   3.054   3.688 -0.2387  0.1151  0.0112
  145SOL    HW2  352   0.062   2.961   3.680  1.5365 -0.3957 -0.0727
  145SOL    HW3  353   0.005   3.102   3.676 -1.4605 -1.4786  1.4971
  145SOL    MW4  354   0.073   3.048   3.685  0.2186 -0.0164 -0.4918
  146SOL     OW  355   3.814   5.518   0.912  0.2791  0.4556 -0.0438
  146SOL    HW2  356   3.797   5.612   0.901  1.0599  0.6367  0.2876
  146SOL    HW3  357   3.860   5.511   0.995  0.1260 -0.2410 -0.0089
  146SOL    MW4  358   3.818   5.530   0.922  0.3583  0.5020 -0.0427
  147SOL     OW  359   2.660   3.633   1.422  0.5457  0.5940  0.3748
  147SOL    HW2  360   2.731   3.664   1.479  1.4153  0.3369 -0.5441
  147SOL    HW3  361   2.602   3.708   1.413  0.7213  0.8237  1.1041
  147SOL    MW4  362   2.662   3.647   1.429 -0.5471 -0.1065 -0.6214
  148SOL     OW  363   0.818   1.550   4.166  0.0297  0.1345  0.3486
  148SOL    HW2  364   0.794   1.628   4.117 -1.8034  0.6026  1.9015
  148SOL    HW3  365   0.735   1.505   4.183  0.8293 -1.0938  1.2259
  148SOL    MW4  366   0.804   1.554   4.162  0.0150  0.3389  0.0727
  149SOL     OW  367   3.239   2.375   0.764  0.0509 -0.3795  1.0213
  149SOL    HW2  368   3.150   2.383   0.800 -1.3742 -0.3304 -2.1341
  149SOL    HW3  369   3.254   2.280   0.761  0.4764 -0.3668  2.2943
  149SOL    MW4  370   3.229   2.363   0.769 -0.2886 -0.2227 -0.3572
  150SOL     OW  371   0.328   5.722   3.371 -0.4397 -0.1648 -0.3074
  150SOL    HW2  372   0.343   5.816   3.354 -1.8010  0.1687  0.2318
  150SOL    HW3  373   0.325   5.715   3.466 -1.2895 -0.5904 -0.3566
  150SOL    MW4  374   0.330   5.734   3.381  0.1949 -0.2460 -0.0173
  151SOL     OW  375   2.115   3.236   2.268  0.6932  0.1583 -0.0258
  151SOL    HW2  376   2.114   3.174   2.341 -1.7916 -2.0709 -1.7755
  151SOL    HW3  377   2.032   3.283   2.275  2.9687  4.4814  1.9589
  151SOL    MW4  378   2.104   3.234   2.278 -0.0267 -0.3117 -0.2284
  152SOL     OW  379   4.135   5.093   5.898  0.6593 -0.3764 -0.0391
  152SOL    HW2  380   4.184   5.010   5.903 -2.2382 -2.1704  2.7169
  152SOL    HW3  381   4.044   5.067   5.912 -0.6826  3.1286 -1.3488
  152SOL    MW4  382   4.130   5.079   5.901 -0.0469  0.0360 -0.9815
  153SOL     OW  383   2.528   5.062   3.285 -0.5878  0.3860  0.2602
  153SOL    HW2  384   2.467   4.999   3.246 -1.1814  1.2287 -0.2225
  153SOL    HW3  385   2.512   5.143   3.236  1.7152  0.3605 -0.6361
  153SOL    MW4  386   2.518   5.065   3.273 -0.1021 -0.2596 -0.0148
  154SOL     OW  387   5.260   6.019   4.202 -0.9223  0.2493 -0.3816
  154SOL    HW2  388   5.351   6.031   4.228 -0.3027 -1.9144 -1.3515
  154SOL    HW3  389   5.210   6.063   4.271  0.7347 -2.0778  2.5576
  154SOL    MW4  390   5.265   6.026   4.215 -0.1219  0.1845 -0.0495
  155SOL     OW  391   1.983   0.584   1.942 -0.1944  0.3277  0.0273
  155SOL    HW2  392   2.060   0.538   1.908  0.3721  0.2148  1.3871
  155SOL    HW3  393   1.973   0.659   1.883  0.5413 -0.0265 -0.5803
  155SOL    MW4  394   1.992   0.588   1.930  0.9632 -0.2596 -0.5102
  156SOL     OW  395   1.431   4.364   3.434 -0.3471 -0.0807 -0.3489
  156SOL    HW2  396   1.495   4.357   3.363  1.2989 -1.9847  1.1984
  156SOL    HW3  397   1.347   4.349   3.392  0.1157  2.5036 -2.4570
  156SOL    MW4  398   1.429   4.361   3.419 -0.3626  0.0092 -0.1194
  157SOL     OW  399   3.577   4.712   1.155 -0.3723  0.0930  0.0559
  157SOL    HW2  400   3.489   4.687   1.129 -0.9210  0.7572  1.2096
  157SOL    HW3  401   3.574   4.807   1.165  1.0078  0.4060 -1.7754
  157SOL    MW4  402   3.565   4.721   1.153 -0.4983 -0.2390  0.2386
  158SOL     OW  403   5.950   1.686   1.816 -0.3712 -0.1231 -0.4560
  158SOL    HW2  404   5.907   1.772   1.821 -1.4679 -0.6738 -0.0190
  158SOL    HW3  405   6.030   1.696   1.868  0.6151  1.2293 -2.1419
  158SOL    MW4  406   5.955   1.699   1.824 -0.2649  0.2170  0.4677
  159SOL     OW  407   0.248   0.257   1.332  0.5278 -0.1746  0.0463
  159SOL    HW2  408   0.174   0.261   1.272  0.0614 -0.6593  0.5758
  159SOL    HW3  409   0.308   0.324   1.301 -0.2571  0.4103 -0.2346
  159SOL    MW4  410   0.246   0.266   1.320  0.5348 -0.2621 -0.0706
  160SOL     OW  411   1.343   2.527   2.507 -0.1350  0.4679 -0.2396
  160SOL    HW2  412   1.360   2.495   2.595  1.6386  1.1087 -0.3064
  160SOL    HW3  413   1.344   2.449   2.452  0.6222  0.2596  0.0677
  160SOL    MW4  414   1.345   2.513   2.511 -0.4925 -0.0396 -0.0585
  161SOL     OW  415   5.946   0.829   2.980 -0.2446 -0.7162 -0.3936
  161SOL    HW2  416   5.909   0.916   2.964 -2.1516 -0.9929  1.8300
  161SOL    HW3  417   6.021   0.823   2.922  1.1320  3.1588  0.6819
  161SOL    MW4  418   5.951   0.840   2.970  0.1271  0.0968 -0.3901
  162SOL     OW  419   2.849   4.908   2.582  0.0569 -0.2623 -0.6534
  162SOL    HW2  420   2.819   4.984   2.633 -1.3386 -0.6781 -0.8044
  162SOL    HW3  421   2.845   4.835   2.644  1.0931 -0.2907 -0.5982
  162SOL    MW4  422   2.844   4.909   2.597 -0.3697  0.2471 -0.6899
  163SOL     OW  423   4.880   4.072   3.467  0.4450  0.5447 -0.3577
  163SOL    HW2  424   4.916   4.011   3.531  0.5492  1.2004  0.2172
  163SOL    HW3  425   4.788   4.081   3.489  0.7029  1.5902  0.3889
  163SOL    MW4  426   4.873   4.065   3.478 -0.4511 -0.7053  0.3192
  164SOL     OW  427   2.425   0.425   1.220 -0.1638 -0.0372 -0.3774
  164SOL    HW2  428   2.378   0.468   1.290 -0.8880  2.2324 -2.1572
  164SOL    HW3  429   2.392   0.465   1.140  1.4258 -1.7248 -1.9807
  164SOL    MW4  430   2.415   0.436   1.219 -0.1913  0.0391  0.2158
  165SOL     OW  431   0.071   5.655   4.188  0.0403 -0.3581 -0.2606
  165SOL    HW2  432   0.161   5.641   4.216  0.5429 -0.7416 -1.9203
  165SOL    HW3  433   0.034   5.567   4.180 -0.5796 -0.1972  0.6334
  165SOL    MW4  434   0.078   5.642   4.191  0.1629 -0.3358  0.0555
  166SOL     OW  435   4.598   2.581   3.218 -0.5612 -0.0296  0.1093
  166SOL    HW2  436   4.592   2.564   3.312  1.6439 -0.8908  0.1763
  166SOL    HW3  437   4.525   2.639   3.198 -2.8311 -2.1390  1.7873
  166SOL    MW4  438   4.588   2.586   3.227  0.2400 -0.0387  0.2945
  167SOL     OW  439   3.057   3.384   0.924  0.3838 -0.0445 -0.2815
  167SOL    HW2  440   3.018   3.428   1.000 -1.9297 -0.3998 -1.1743
  167SOL    HW3  441   3.063   3.292   0.950 -0.2598 -0.1395 -0.4445
  167SOL    MW4  442   3.052   3.378   0.938 -0.5518  0.6394  0.8100
  168SOL     OW  443   4.026   5.962   0.065  0.7089 -0.1687  0.4075
  168SOL    HW2  444   3.960   5.980   0.133  0.5518  3.3274 -0.5124
  168SOL    HW3  445   4.006   6.024  -0.005  2.6840 -1.6608 -1.6039
  168SOL    MW4  446   4.014   5.972   0.065 -0.3152 -0.0830  0.3748
  169SOL     OW  447   6.172   6.410   2.598 -0.1570  0.0592 -0.8414
  169SOL    HW2  448   6.132   6.492   2.628 -1.2235 -0.6956 -0.1559
  169SOL    HW3  449   6.255   6.438   2.559  0.4508  1.2840  1.1725
  169SOL    MW4  450   6.178   6.425   2.596  0.0603 -0.3284  0.5214
  170SOL     OW  451   2.509   6.117   3.114 -0.5288  0.3154  0.1117
  170SOL    HW2  452   2.468   6.031   3.121  0.0744  0.0440  0.3639
  170SOL    HW3  453   2.465   6.170   3.180  0.3480 -0.3126  1.2402
  170SOL    MW4  454   2.498   6.112   3.124 -0.0707 -0.2665  0.0346
  171SOL     OW  455   0.809   0.670   1.176  0.6168  0.1246  0.4309
  171SOL    HW2  456   0.818   0.763   1.198 -0.2300  0.1508  0.6801
  171SOL    HW3  457   0.765   0.670   1.091 -1.9427 -0.0632  1.6753
  171SOL    MW4  458   0.804   0.682   1.167 -0.3499  0.2364 -0.0019
  172SOL     OW  459   3.189   1.389   2.125  0.1596  0.1875  0.1379
  172SOL    HW2  460   3.171   1.483   2.136 -0.4759  0.1223 -0.2987
  172SOL    HW3  461   3.281   1.385   2.099  0.7151  0.5709  1.9259
  172SOL    MW4  462   3.198   1.401   2.123 -0.4068  0.6579 -1.1655
  173SOL     OW  463   1.952   0.887   1.126  1.0276  0.1912  0.1032
  173SOL    HW2  464   1.910   0.957   1.176  0.9790  0.7865 -0.7438
  173SOL    HW3  465   2.044   0.889   1.154  1.2830  1.3861 -0.7560
  173SOL    MW4  466   1.959   0.896   1.136 -0.2902  0.0612  0.2217
  174SOL     OW  467   3.879   0.053   4.773  0.1300  0.1127 -0.5964
  174SOL    HW2  468   3.796   0.052   4.821  0.6630 -0.5379  0.3322
  174SOL    HW3  469   3.898   0.146   4.761 -0.2191  0.2831  0.1012
  174SOL    MW4  470   3.871   0.065   4.778 -0.1820  0.5293 -0.4958
  175SOL     OW  471   0.862   0.216   5.448 -0.2391  0.6101 -0.2236
  175SOL    HW2  472   0.801   0.191   5.517 -0.1938  0.2151 -0.3258
  175SOL    HW3  473   0.888   0.133   5.407  0.0051  0.8126 -0.4844
  175SOL    MW4  474   0.857   0.202   5.451  0.1768  0.4218 -0.4954
  176SOL     OW  475   2.858   0.772   0.231 -0.0180  0.1832  0.0676
  176SOL    HW2  476   2.853   0.829   0.308  0.4792 -0.1504  0.3562
  176SOL    HW3  477   2.929   0.810   0.179 -0.3566  0.4107 -0.2320
  176SOL    MW4  478   2.867   0.785   0.235 -0.6540  0.3890  0.1198
  177SOL     OW  479   3.479   0.425   4.195  0.3358 -0.2714 -0.8381
  177SOL    HW2  480   3.425   0.409   4.272  0.2051 -1.5257 -1.1601
  177SOL    HW3  481   3.425   0.482   4.140 -0.1761 -0.5293 -0.6192
  177SOL    MW4  482   3.464   0.430   4.198  0.6978 -0.0916 -0.4681
  178SOL     OW  483   4.080   0.479   6.273  0.0191  0.1956  0.1410
  178SOL    HW2  484   4.154   0.519   6.227  0.9165  0.5465  1.8181
  178SOL    HW3  485   4.058   0.401   6.221  1.8280 -0.1385 -0.1787
  178SOL    MW4  486   4.087   0.474   6.260 -0.2070 -0.2263 -0.1200
  179SOL     OW  487   4.702   3.231   6.429  0.0004  0.1901 -0.0158
  179SOL    HW2  488   4.662   3.300   6.481 -0.5601 -0.3221  0.2388
  179SOL    HW3  489   4.744   3.277   6.356  0.4609  0.8773  0.6702
  179SOL    MW4  490   4.702   3.246   6.426  0.1178 -0.0817  0.1576
  180SOL     OW  491   2.899   0.141   0.667 -0.3467  0.2850 -0.1512
  180SOL    HW2  492   2.873   0.233   0.657 -4.0076 -0.4867  1.0981
  180SOL    HW3  493   2.899   0.106   0.578 -0.8131  1.0265 -0.4453
  180SOL    MW4  494   2.896   0.149   0.654  0.5399  0.0746 -0.7299
  181SOL     OW  495   2.327   2.057   3.782 -0.0303 -0.0185 -0.1867
  181SOL    HW2  496   2.343   2.047   3.688  0.1783 -2.0410  0.0294
  181SOL    HW3  497   2.394   2.118   3.812  1.0297 -0.7374 -1.0459
  181SOL    MW4  498   2.338   2.064   3.774  0.3203  0.0591  0.0860
  182SOL     OW  499   5.568   6.289   2.759  0.5975 -0.2985 -0.0120
  182SOL    HW2  500   5.651   6.331   2.780  0.9131 -0.0193 -1.6798
  182SOL    HW3  501   5.588   6.195   2.757  0.4093 -0.3874  1.4902
  182SOL    MW4  502   5.582   6.282   2.761 -0.3185  0.1489 -0.3558
  183SOL     OW  503   2.826   4.493   4.353  0.2218  0.5390 -0.0728
  183SOL    HW2  504   2.832   4.589   4.360  0.7318  0.5570 -0.6521
  183SOL    HW3  505   2.732   4.475   4.354 -0.0196  1.2761 -2.6713
  183SOL    MW4  506   2.815   4.504   4.354 -0.2241 -0.6678  0.6553
  184SOL     OW  507   2.172   1.976   5.111  0.1361 -0.0390  0.6166
  184SOL    HW2  508   2.205   1.893   5.147  1.3074  0.3835  0.5419
  184SOL    HW3  509   2.143   2.025   5.187  0.7981  0.0650  0.8074
  184SOL    MW4  510   2.173   1.971   5.126  0.7298 -0.0714  0.4975
  185SOL     OW  511   0.853   2.120   3.959  0.2471  0.1086 -0.3357
  185SOL    HW2  512   0.763   2.103   3.987  1.4059 -2.6096  2.2343
  185SOL    HW3  513   0.856   2.091   3.868 -0.8991 -2.4055  0.3505
  185SOL    MW4  514   0.842   2.114   3.950  0.0982  0.0741  0.0412
  186SOL     OW  515   5.481   0.885   6.200  0.3223  0.1417  0.1322
  186SOL    HW2  516   5.444   0.903   6.113  1.3788 -0.9005 -0.5526
  186SOL    HW3  517   5.574   0.905   6.190  0.2339  1.3075  1.4210
  186SOL    MW4  518   5.488   0.890   6.187 -0.5892  0.1548 -0.3007
  187SOL     OW  519   2.271   1.439   4.022 -0.3544  0.0892  0.2099
  187SOL    HW2  520   2.302   1.356   4.058 -0.1706 -0.2129 -0.6161
  187SOL    HW3  521   2.188   1.455   4.065 -1.0690 -1.2294 -0.6188
  187SOL    MW4  522   2.264   1.431   4.032  0.1083  0.3369  0.2241
  188SOL     OW  523   4.570   0.202   3.055 -0.1877  0.0122 -0.0174
  188SOL    HW2  524   4.556   0.216   2.961 -1.6842 -0.0581  0.1653
  188SOL    HW3  525   4.657   0.163   3.061  0.5039  1.2364 -1.2577
  188SOL    MW4  526   4.580   0.199   3.044  0.0337 -0.2370 -0.4698
  189SOL     OW  527   3.834   0.401   4.015  0.4332  0.5139  0.1879
  189SOL    HW2  528   3.759   0.425   3.960 -0.0846 -0.3473  0.4943
  189SOL    HW3  529   3.863   0.483   4.053 -0.2245  0.8915 -0.1056
  189SOL    MW4  530   3.828   0.415   4.013 -0.0680  0.1405  0.5413
  190SOL     OW  531   0.659   2.187   2.221  0.0408  0.4068  0.1403
  190SOL    HW2  532   0.679   2.201   2.314  0.7633 -1.4805  0.3209
  190SOL    HW3  533   0.633   2.095   2.216  0.5361  0.3258 -1.6232
  190SOL    MW4  534   0.658   2.177   2.233 -0.0042  0.4219 -0.3571
  191SOL     OW  535   6.393   4.412   6.036 -0.2333 -0.2940 -0.1203
  191SOL    HW2  536   6.310   4.457   6.052  0.4310  0.4368  1.4427
  191SOL    HW3  537   6.453   4.481   6.009 -0.4823 -1.0490 -2.8499
  191SOL    MW4  538   6.390   4.427   6.035  0.3028  0.1073  0.2308
  192SOL     OW  539   0.385   2.169   2.709 -0.5484 -0.0957 -0.6210
  192SOL    HW2  540   0.468   2.146   2.751 -1.0137  0.2195  0.5011
  192SOL    HW3  541   0.328   2.095   2.729 -0.9970  0.4001 -0.0494
  192SOL    MW4  542   0.389   2.156   2.717 -0.7658  0.4998 -0.5819
  193SOL     OW  543   4.228   1.021   6.006  0.6553  0.1985  0.0217
  193SOL    HW2  544   4.261   0.962   5.939 -0.1037  0.7519 -0.8657
  193SOL    HW3  545   4.135   1.000   6.014  0.9502 -0.6466  1.7567
  193SOL    MW4  546   4.220   1.011   5.999  0.3727 -0.0018 -0.3623
  194SOL     OW  547   4.976   0.510   5.044  0.3272  0.4294 -0.5481
  194SOL    HW2  548   5.030   0.512   4.965 -0.9566  0.2925 -1.4707
  194SOL    HW3  549   4.928   0.427   5.039 -2.3346  1.8850 -1.4786
  194SOL    MW4  550   4.976   0.499   5.033  0.1293 -0.2257 -0.1138
  195SOL     OW  551   3.055   1.189   0.639 -0.3421 -0.1593 -0.1586
  195SOL    HW2  552   3.032   1.282   0.650 -0.6634 -0.0510 -1.5272
  195SOL    HW3  553   3.028   1.148   0.722 -0.5901  0.8943  0.3032
  195SOL    MW4  554   3.048   1.196   0.651 -0.1938 -0.3521  0.8147
  196SOL     OW  555   1.701   3.643   4.613  0.3310 -0.0066  0.0255
  196SOL    HW2  556   1.637   3.707   4.583 -0.8011  0.4378  3.0783
  196SOL    HW3  557   1.781   3.666   4.566 -0.7279  1.9358 -0.9404
  196SOL    MW4  558   1.703   3.655   4.602 -0.4778 -0.6750  0.1676
  197SOL     OW  559   4.785   6.114   2.591 -0.3628  0.6358  0.0735
  197SOL    HW2  560   4.848   6.172   2.633 -0.7605  1.0650  0.0784
  197SOL    HW3  561   4.805   6.121   2.497  0.2292  0.0212  0.1426
  197SOL    MW4  562   4.796   6.123   2.584  0.0357 -0.1704 -0.0765
  198SOL     OW  563   0.137   6.339   2.562 -0.1096 -0.4120  0.4136
  198SOL    HW2  564   0.097   6.345   2.648 -0.1736  1.8436  0.2852
  198SOL    HW3  565   0.093   6.264   2.520 -0.2442 -1.3899  2.2003
  198SOL    MW4  566   0.126   6.330   2.568  0.5326  0.0326  0.2444
  199SOL     OW  567   4.181   2.702   1.828  0.1729 -0.2856 -0.3290
  199SOL    HW2  568   4.237   2.668   1.897 -0.0482 -2.8552 -1.3010
  199SOL    HW3  569   4.107   2.741   1.874  0.9477 -0.2308  0.9003
  199SOL    MW4  570   4.178   2.703   1.843 -0.1010 -0.0174  0.2658
  200SOL     OW  571   2.421   2.644   2.009  0.3641  0.0909  0.1716
  200SOL    HW2  572   2.362   2.670   2.080 -0.2088  1.3172 -0.7144
  200SOL    HW3  573   2.364   2.624   1.936  0.9962  1.9021 -0.9026
  200SOL    MW4  574   2.406   2.645   2.009 -0.2901 -0.2730  0.0278
  201SOL     OW  575   0.416   3.158   5.593  0.0970  0.2114  0.3350
  201SOL    HW2  576   0.462   3.222   5.646  0.5567  0.7781 -0.7109
  201SOL    HW3  577   0.451   3.074   5.621  1.8632  0.6281 -0.4727
  201SOL    MW4  578   0.426   3.155   5.603  0.1375  0.1656 -0.1857
  202SOL     OW  579   4.461   5.136   0.670  0.2395 -0.0799 -0.2234
  202SOL    HW2  580   4.372   5.173   0.670  0.7285  1.5968  3.5012
  202SOL    HW3  581   4.451   5.051   0.713  0.3702 -0.1996 -0.4282
  202SOL    MW4  582   4.448   5.130   0.676 -0.4373  0.1688  0.3009
  203SOL     OW  583   5.414   1.382   3.486 -1.0415  0.4445  0.3648
  203SOL    HW2  584   5.505   1.408   3.503 -1.3718  0.8387  1.6026
  203SOL    HW3  585   5.368   1.463   3.467 -1.1767  0.2619 -0.1106
  203SOL    MW4  586   5.420   1.396   3.485 -0.4209 -0.9520 -0.6933
  204SOL     OW  587   2.294   6.321   0.851 -0.3065 -0.2066 -0.4192
  204SOL    HW2  588   2.229   6.391   0.844 -0.3955 -0.3540 -1.1521
  204SOL    HW3  589   2.307   6.291   0.761  0.5685 -0.3655 -0.2544
  204SOL    MW4  590   2.287   6.327   0.838 -0.6605  0.2373 -0.6632
  205SOL     OW  591   6.324   4.324   1.894  0.3865  0.1505 -0.4830
  205SOL    HW2  592   6.405   4.335   1.846  1.0483 -0.3771  0.4776
  205SOL    HW3  593   6.333   4.238   1.936  0.1246  0.8644  1.0979
  205SOL    MW4  594   6.336   4.314   1.893  0.1611  0.0572  0.4576
  206SOL     OW  595   6.222   2.090   3.931  0.5239  0.4047 -0.0339
  206SOL    HW2  596   6.143   2.090   3.877  0.7964  0.7691 -0.4301
  206SOL    HW3  597   6.189   2.080   4.021  0.0505  0.2189 -0.2230
  206SOL    MW4  598   6.207   2.088   3.936 -0.1956  0.3002  0.1707
  207SOL     OW  599   2.324   6.116   2.892  0.1676 -0.3841 -0.3269
  207SOL    HW2  600   2.389   6.142   2.957 -0.1620  2.0136 -0.8635
  207SOL    HW3  601   2.367   6.048   2.841  1.3743 -0.4859  0.7673
  207SOL    MW4  602   2.338   6.111   2.894  0.6397  0.0091  0.3425
  208SOL     OW  603   4.085   1.248   6.405  0.2604  0.4177  0.5984
  208SOL    HW2  604   4.060   1.339   6.417 -0.0149  0.3594  0.4669
  208SOL    HW3  605   4.133   1.246   6.322 -1.5735  0.0889 -0.5085
  208SOL    MW4  606   4.088   1.260   6.396  0.4426 -0.0272 -0.3359
  209SOL     OW  607   1.284   3.393   3.440 -0.1423  0.3484 -0.5019
  209SOL    HW2  608   1.302   3.482   3.410  0.1779  1.1502  1.8476
  209SOL    HW3  609   1.190   3.391   3.454  0.0667  0.9978  1.2597
  209SOL    MW4  610   1.274   3.405   3.438 -0.2987 -0.4078  0.1122
  210SOL     OW  611   4.166   5.797   3.022  0.0320 -0.0560 -0.1897
  210SOL    HW2  612   4.073   5.791   3.044 -0.1175  0.4437 -0.6782
  210SOL    HW3  613   4.196   5.706   3.018 -0.6693 -0.2587 -1.0199
  210SOL    MW4  614   4.158   5.784   3.025 -1.0523  0.5733 -0.2853
  211SOL     OW  615   6.225   0.362   2.224  0.0624 -0.2295  0.3035
  211SOL    HW2  616   6.288   0.290   2.225  0.4945  0.1531  0.3858
  211SOL    HW3  617   6.277   0.440   2.205 -0.3438  0.1253  0.6316
  211SOL    MW4  618   6.240   0.363   2.221 -0.9169 -0.4654  0.6342
  212SOL     OW  619   1.534   2.760   6.202 -0.1157  0.0071  0.5050
  212SOL    HW2  620   1.462   2.818   6.178  0.2577 -0.1130 -0.9817
  212SOL    HW3  621   1.574   2.803   6.278 -2.2008 -0.3326  1.9015
  212SOL    MW4  622   1.530   2.773   6.209 -0.7274 -0.7099 -0.2459
  213SOL     OW  623   3.955   4.940   2.665 -0.0315  0.5804  0.2969
  213SOL    HW2  624   4.041   4.922   2.704 -0.1976 -1.0888 -0.0082
  213SOL    HW3  625   3.893   4.923   2.736 -0.2220 -0.5095 -0.1152
  213SOL    MW4  626   3.958   4.935   2.679  0.0546 -0.4123  0.2089
  214SOL     OW  627   1.446   5.831   4.481  0.3593  0.0519 -0.4017
  214SOL    HW2  628   1.526   5.878   4.505 -1.6104  2.5753  1.7852
  214SOL    HW3  629   1.421   5.784   4.561 -1.0888  0.5107 -0.5518
  214SOL    MW4  630   1.453   5.831   4.495  0.4613 -0.3275  0.4599
  215SOL     OW  631   6.011   0.726   5.047 -0.5366  0.4469 -0.7312
  215SOL    HW2  632   5.966   0.756   4.969 -2.4724 -1.3346 -0.3918
  215SOL    HW3  633   6.001   0.631   5.046 -1.5782  0.4197  2.1745
  215SOL    MW4  634   6.004   0.717   5.037  0.1801 -0.1123  0.5140
  216SOL     OW  635   5.224   0.665   5.915  0.1250  0.1218 -0.2432
  216SOL    HW2  636   5.233   0.758   5.937 -0.7455 -0.2577  2.0881
  216SOL    HW3  637   5.146   0.637   5.963  0.3813 -1.8102 -0.8754
  216SOL    MW4  638   5.215   0.674   5.924  0.3778  0.3768  0.1035
  217SOL     OW  639   4.602   4.095   1.774  0.5059  0.2734  0.0987
  217SOL    HW2  640   4.679   4.150   1.760  0.4755  0.2062 -0.3663
  217SOL    HW3  641   4.583   4.103   1.867  0.6163  0.9035  0.0737
  217SOL    MW4  642   4.610   4.104   1.784  0.1456  0.4932  0.1805
  218SOL     OW  643   3.224   1.751   0.062  0.5953  0.6676 -0.7841
  218SOL    HW2  644   3.267   1.807   0.127 -1.8328  0.7358  0.8859
  218SOL    HW3  645   3.133   1.781   0.062 -0.4088 -2.1443 -1.0810
  218SOL    MW4  646   3.218   1.763   0.071  0.5054 -0.6439 -0.2811
  219SOL     OW  647   4.340   1.501   0.738  0.4585 -0.3826  0.2149
  219SOL    HW2  648   4.280   1.430   0.762 -1.6043  1.3937  0.6716
  219SOL    HW3  649   4.351   1.551   0.819  1.0465  0.3895 -0.3283
  219SOL    MW4  650   4.334   1.498   0.752 -0.1727  0.0910  0.6778
  220SOL     OW  651   6.331   0.387   5.383 -0.1532  0.1949  0.3560
  220SOL    HW2  652   6.300   0.395   5.293 -0.5083 -2.0599  0.2053
  220SOL    HW3  653   6.427   0.394   5.376 -0.0018 -1.7994 -0.5477
  220SOL    MW4  654   6.340   0.389   5.370  0.1199 -0.1888  0.2235
  221SOL     OW  655   1.593   0.985   2.128 -0.3130  0.3233 -0.7512
  221SOL    HW2  656   1.601   1.079   2.139 -4.5015  0.7349  0.3076
  221SOL    HW3  657   1.584   0.972   2.034  1.2359  0.7777 -0.9949
  221SOL    MW4  658   1.593   0.995   2.117  0.0880 -0.1259  0.5143
  222SOL     OW  659   6.346   4.550   1.277  0.4310 -0.1246 -0.6860
  222SOL    HW2  660   6.316   4.459   1.267  3.4153 -1.2886 -0.0079
  222SOL    HW3  661   6.310   4.578   1.362 -0.2466 -0.7839 -0.7495
  222SOL    MW4  662   6.337   4.542   1.287  1.2058 -0.0518 -0.1536
  223SOL     OW  663   4.319   0.204   1.044 -0.1637 -0.0469 -0.4020
  223SOL    HW2  664   4.309   0.109   1.048 -2.0695  0.1244  0.4904
  223SOL    HW3  665   4.231   0.235   1.022  0.1641  1.5447  0.4311
  223SOL    MW4  666   4.306   0.195   1.042  0.0966  0.2878  0.5184
  224SOL     OW  667   6.110   6.048   3.161  0.5394  0.2519 -0.5039
  224SOL    HW2  668   6.134   6.130   3.204  3.5799 -1.5346  1.5706
  224SOL    HW3  669   6.192   5.999   3.155 -1.2946 -3.1016 -0.6689
  224SOL    MW4  670   6.124   6.052   3.166 -0.0512 -0.5517  0.2431
  225SOL     OW  671   4.460   4.067   0.367  0.0232 -0.1767  0.9758
  225SOL    HW2  672   4.464   4.014   0.446  2.1689 -1.3561  0.1623
  225SOL    HW3  673   4.541   4.118   0.368 -0.1456  0.1447 -0.1965
  225SOL    MW4  674   4.471   4.067   0.377 -0.4740  0.1261  0.4587
  226SOL     OW  675   3.687   2.074   5.869  0.2449  0.0695 -0.1756
  226SOL    HW2  676   3.626   2.143   5.841  1.5146  0.9634 -0.8331
  226SOL    HW3  677   3.731   2.111   5.946 -0.0968 -0.6178  0.3656
  226SOL    MW4  678   3.685   2.088   5.876 -0.1320  0.0491 -0.4317
  227SOL     OW  679   3.876   0.116   0.263 -0.3297  0.2291  0.4816
  227SOL    HW2  680   3.943   0.114   0.195 -0.9725  1.2589 -0.2290
  227SOL    HW3  681   3.829   0.033   0.254 -0.8780  0.6450 -0.8665
  227SOL    MW4  682   3.878   0.105   0.252 -0.3318 -0.4309  0.9115
  228SOL     OW  683   1.687   0.439   0.804  0.6136 -0.9317 -0.6021
  228SOL    HW2  684   1.655   0.436   0.895  0.9609  0.6602 -0.3950
  228SOL    HW3  685   1.614   0.476   0.755  1.4802  1.1750 -0.4037
  228SOL    MW4  686   1.673   0.443   0.810  0.6468 -0.8305  0.0943
  229SOL     OW  687   5.931   2.835   1.024 -0.2427  0.1424  0.1018
  229SOL    HW2  688   5.916   2.907   1.086 -2.0808 -1.2823  1.4244
  229SOL    HW3  689   5.855   2.839   0.966 -2.1537 -2.5332  2.1493
  229SOL    MW4  690   5.919   2.845   1.025 -0.1390 -0.3248 -0.3325
  230SOL     OW  691   0.585   1.398   6.067  0.3287  0.2461  0.1352
  230SOL    HW2  692   0.538   1.334   6.013  0.2700  0.9720 -0.6988
  230SOL    HW3  693   0.668   1.356   6.087 -0.4527 -0.8376  1.1762
  230SOL    MW4  694   0.590   1.384   6.062 -0.2057  0.3418  0.0588
  231SOL     OW  695   4.941   3.822   0.538 -0.3021 -0.1237 -0.2556
  231SOL    HW2  696   4.892   3.786   0.463 -0.0039  0.5090 -0.7629
  231SOL    HW3  697   4.955   3.914   0.516 -0.2772  0.0940  0.6229
  231SOL    MW4  698   4.936   3.829   0.525 -0.0783 -0.2404 -0.2270
  232SOL     OW  699   2.025   1.704   1.021  0.3445  0.0472  0.0941
  232SOL    HW2  700   2.026   1.796   0.994  1.5312  0.4818  1.4576
  232SOL    HW3  701   1.942   1.694   1.068  0.4665  0.5829  0.4281
  232SOL    MW4  702   2.014   1.715   1.024 -0.3401 -0.0133 -0.8041
  233SOL     OW  703   4.998   5.733   4.553  0.2165  0.0449  0.1822
  233SOL    HW2  704   4.942   5.746   4.630 -2.1382 -0.2347 -1.3617
  233SOL    HW3  705   4.976   5.807   4.495  0.5620 -0.7291 -0.9686
  233SOL    MW4  706   4.988   5.745   4.556  0.2388  0.2699 -0.6633
  234SOL     OW  707   1.113   4.686   3.638 -0.2796 -0.5414  0.0187
  234SOL    HW2  708   1.094   4.761   3.694 -3.2834 -2.2068  1.4828
  234SOL    HW3  709   1.160   4.624   3.694  0.6299 -0.4879 -0.6585
  234SOL    MW4  710   1.117   4.687   3.653 -0.1740  0.2912 -0.2722
  235SOL     OW  711   2.477   5.541   2.004  0.0448 -0.1041 -0.0754
  235SOL    HW2  712   2.507   5.631   2.019 -0.0879 -0.2586  1.2315
  235SOL    HW3  713   2.426   5.519   2.082  0.6861 -1.5689 -0.0249
  235SOL    MW4  714   2.474   5.550   2.017  0.1873 -0.3500 -0.0266
  236SOL     OW  715   3.147   2.922   5.480 -0.0269  0.0581  0.2883
  236SOL    HW2  716   3.197   2.856   5.527 -0.2675 -0.4335 -0.1282
  236SOL    HW3  717   3.063   2.880   5.463  0.7255 -0.5404 -2.3176
  236SOL    MW4  718   3.142   2.908   5.484  0.1384  0.2029 -0.4449
  237SOL     OW  719   3.126   3.371   5.600 -0.0500 -0.3399 -0.1275
  237SOL    HW2  720   3.051   3.320   5.568  0.6030 -1.2778 -0.2014
  237SOL    HW3  721   3.180   3.307   5.647  1.0058  0.2019 -0.5738
  237SOL    MW4  722   3.123   3.356   5.602  0.6003  0.7760 -0.3005
  238SOL     OW  723   1.460   3.459   0.322  0.4922 -0.3928  0.8875
  238SOL    HW2  724   1.416   3.542   0.303 -1.0641 -1.0502  1.3990
  238SOL    HW3  725   1.404   3.392   0.282  0.0762 -1.3868  2.9531
  238SOL    MW4  726   1.447   3.461   0.314  0.3093  0.3409 -0.1460
  239SOL     OW  727   2.189   0.091   0.596  0.4681  0.2453 -0.3128
  239SOL    HW2  728   2.159   0.178   0.571 -0.4743 -0.0090 -0.0938
  239SOL    HW3  729   2.126   0.031   0.556  0.7334 -0.3032  0.0746
  239SOL    MW4  730   2.177   0.095   0.587  0.1031  0.4348 -0.5558
  240SOL     OW  731   1.889   4.867   3.098 -0.7309  0.3567 -0.3155
  240SOL    HW2  732   1.803   4.830   3.121 -0.6139 -0.0149 -0.4795
  240SOL    HW3  733   1.941   4.792   3.071 -0.2203  0.5297  0.1760
  240SOL    MW4  734   1.884   4.852   3.098  0.2518 -0.4596  0.1962
  241SOL     OW  735   6.144   5.711   1.068  0.0741 -0.1520 -0.1080
  241SOL    HW2  736   6.195   5.643   1.113  0.0464  0.2917  0.6037
  241SOL    HW3  737   6.062   5.668   1.046  0.2258 -0.4782 -0.0468
  241SOL    MW4  738   6.140   5.696   1.071 -0.1714  0.1817 -0.0781
  242SOL     OW  739   5.054   3.620   1.899 -0.5534 -0.2049  0.3656
  242SOL    HW2  740   5.127   3.584   1.949 -0.2578 -0.6859 -0.3951
  242SOL    HW3  741   4.986   3.552   1.906 -0.8131  0.0934  0.7933
  242SOL    MW4  742   5.054   3.606   1.907  0.3044 -0.1582  0.0416
  243SOL     OW  743   1.970   5.414   6.116  0.2733 -0.0401 -0.5335
  243SOL    HW2  744   1.881   5.379   6.128  0.4942  0.0593  1.8893
  243SOL    HW3  745   2.028   5.343   6.144  0.9516  0.2046 -1.2756
  243SOL    MW4  746   1.966   5.400   6.121  0.0854  0.0861 -0.3078
  244SOL     OW  747   0.439   4.974   5.937 -0.4503 -0.0455 -0.2462
  244SOL    HW2  748   0.356   4.931   5.957  0.1444 -2.0462 -1.8444
  244SOL    HW3  749   0.457   5.026   6.016 -2.9074  0.0251  0.3676
  244SOL    MW4  750   0.430   4.975   5.950  0.0590  0.2338 -0.2832
  245SOL     OW  751   3.369   1.582   4.487 -0.4124  0.0522  0.0268
  245SOL    HW2  752   3.424   1.592   4.565  0.7908  1.1685 -0.9231
  245SOL    HW3  753   3.408   1.508   4.440 -0.1736  0.3675 -0.2754
  245SOL    MW4  754   3.381   1.574   4.491 -0.3852 -0.4910  0.4559
  246SOL     OW  755   4.793   5.400   0.644  0.3811 -0.1525 -0.2781
  246SOL    HW2  756   4.849   5.354   0.582  0.2830 -1.1085  0.3233
  246SOL    HW3  757   4.844   5.403   0.725  0.4292  0.9043 -0.3280
  246SOL    MW4  758   4.807   5.394   0.646 -0.1679 -0.2255  0.1518
  247SOL     OW  759   0.090   1.730   6.309  0.0677 -0.3807 -0.6184
  247SOL    HW2  760   0.109   1.647   6.352 -0.2220 -0.0877  0.0803
  247SOL    HW3  761  -0.004   1.742   6.321  0.4360  1.0371  1.0697
  247SOL    MW4  762   0.080   1.720   6.316  0.1303 -0.1177  0.3684
  248SOL     OW  763   3.363   3.127   5.015 -0.7307  0.5751  0.1340
  248SOL    HW2  764   3.292   3.159   4.959  0.0839  3.2114  0.4715
  248SOL    HW3  765   3.320   3.101   5.096 -1.5232  0.3112 -0.3625
  248SOL    MW4  766   3.348   3.128   5.018  0.6919  0.4663 -0.1344
  249SOL     OW  767   1.898   5.573   0.771 -0.1740  0.5917  0.2754
  249SOL    HW2  768   1.948   5.506   0.724  0.3514  0.2053  1.3332
  249SOL    HW3  769   1.831   5.523   0.819 -1.2594  1.0571 -0.7186
  249SOL    MW4  770   1.896   5.557   0.771 -0.0121 -0.7638  0.4964
  250SOL     OW  771   5.808   0.439   5.564  0.0796  0.4326  0.6629
  250SOL    HW2  772   5.758   0.460   5.485  0.9843  1.0855  0.2503
  250SOL    HW3  773   5.797   0.517   5.620 -0.2639  0.1199  1.0394
  250SOL    MW4  774   5.800   0.452   5.561  0.0953 -0.1718 -0.0523
  251SOL     OW  775   3.046   3.448   1.543 -0.1508  0.1514 -0.4101
  251SOL    HW2  776   3.116   3.383   1.535  0.1882  0.6320 -1.7263
  251SOL    HW3  777   2.969   3.397   1.569  0.4037 -0.5816 -0.1770
  251SOL    MW4  778   3.045   3.433   1.545  0.2693 -0.1312 -0.2014
  252SOL     OW  779   0.743   3.934   2.067  0.0069 -0.5057  0.3457
  252SOL    HW2  780   0.772   3.995   2.135 -0.6866 -0.0237  0.2219
  252SOL    HW3  781   0.718   3.991   1.994 -2.7259 -0.7602  0.9931
  252SOL    MW4  782   0.744   3.950   2.066  0.3234 -0.3907 -0.4712
  253SOL     OW  783   2.340   2.009   4.566 -0.3242 -0.1903 -0.0209
  253SOL    HW2  784   2.299   1.995   4.480  0.7633 -0.2196 -0.5603
  253SOL    HW3  785   2.267   2.023   4.626 -1.1452 -1.0226 -0.7942
  253SOL    MW4  786   2.325   2.009   4.562 -0.3519 -0.3652  0.1848
  254SOL     OW  787   4.636   4.545   1.438 -0.2380 -0.2909  0.0247
  254SOL    HW2  788   4.654   4.542   1.532 -1.4871  0.1658  0.3021
  254SOL    HW3  789   4.600   4.632   1.423 -3.1927 -1.4502 -0.2397
  254SOL    MW4  790   4.634   4.556   1.448  0.4315 -0.3531  0.6680
  255SOL     OW  791   2.549   0.742   5.818  0.1804  0.1919 -0.2716
  255SOL    HW2  792   2.618   0.763   5.881  0.6435  1.8691 -1.2567
  255SOL    HW3  793   2.479   0.803   5.840 -0.1566 -0.0855 -0.5817
  255SOL    MW4  794   2.549   0.753   5.829  0.3578 -0.3162  0.3332
  256SOL     OW  795   4.839   2.427   3.484 -0.4520  0.0821 -0.1382
  256SOL    HW2  796   4.909   2.399   3.544 -1.3232 -1.9946  0.0044
  256SOL    HW3  797   4.845   2.366   3.411 -0.7077  1.3181 -1.2203
  256SOL    MW4  798   4.849   2.415   3.482  0.0894  0.0238  0.6648
  257SOL     OW  799   1.970   3.653   4.444 -0.1114 -0.0884 -0.6369
  257SOL    HW2  800   1.968   3.747   4.425  0.6816  0.1040  0.1612
  257SOL    HW3  801   2.017   3.647   4.527  2.3396 -1.4117 -2.0285
  257SOL    MW4  802   1.976   3.665   4.452 -0.2414  0.3777 -0.2347
  258SOL     OW  803   2.240   1.321   2.600  0.6581  0.6600 -0.5201
  258SOL    HW2  804   2.211   1.359   2.682  1.3127 -0.1258  0.0871
  258SOL    HW3  805   2.193   1.371   2.533 -1.1772  0.2082  0.3690
  258SOL    MW4  806   2.230   1.333   2.602 -0.0228 -0.2819  0.0411
  259SOL     OW  807   6.387   3.969   3.268 -0.0642  0.2960  0.0088
  259SOL    HW2  808   6.457   4.034   3.275 -0.5371  0.9337 -0.9558
  259SOL    HW3  809   6.323   4.009   3.210 -0.7733 -0.6910  0.0862
  259SOL    MW4  810   6.388   3.983   3.261 -0.1582  0.3640  0.2492
  260SOL     OW  811   2.299   1.461   3.510  0.1849  0.3905  0.0256
  260SOL    HW2  812   2.246   1.522   3.459 -1.4293  0.5795  1.8259
  260SOL    HW3  813   2.312   1.505   3.594  1.3416 -0.6068  0.3944
  260SOL    MW4  814   2.294   1.475   3.514  0.4045  0.3292 -0.2207
  261SOL     OW  815   3.393   4.887   3.064 -0.1466  0.5731 -0.2298
  261SOL    HW2  816   3.463   4.950   3.080 -1.4934  1.9768  0.4125
  261SOL    HW3  817   3.333   4.899   3.137 -0.6497 -1.2252 -0.2872
  261SOL    MW4  818   3.394   4.897   3.076 -0.0732  0.4825  0.0340
  262SOL     OW  819   6.053   5.766   5.613  0.1861 -0.7868  0.4460
  262SOL    HW2  820   6.080   5.816   5.536 -1.0506 -1.2654 -0.3317
  262SOL    HW3  821   5.978   5.815   5.647 -0.2798 -1.4379  0.3815
  262SOL    MW4  822   6.047   5.779   5.607 -0.3120  0.1919 -0.3726
  263SOL     OW  823   0.788   0.176   2.548  0.1124 -0.8194 -0.1832
  263SOL    HW2  824   0.703   0.212   2.575 -0.3720  0.0569 -2.5933
  263SOL    HW3  825   0.836   0.164   2.630 -0.2416  3.9973  1.0807
  263SOL    MW4  826   0.783   0.179   2.562  1.0259 -0.3940 -0.0063
  264SOL     OW  827   4.845   0.927   5.588  0.1544  0.4990 -0.3714
  264SOL    HW2  828   4.770   0.900   5.536 -0.0247 -0.1131  0.1813
  264SOL    HW3  829   4.907   0.964   5.525 -0.6206  1.0443 -0.8263
  264SOL    MW4  830   4.843   0.929   5.573  0.2811  0.3020  0.4685
  265SOL     OW  831   4.449   4.123   1.034 -0.0475 -0.4997 -0.6515
  265SOL    HW2  832   4.469   4.039   1.075  0.8808 -0.1001 -0.2511
  265SOL    HW3  833   4.410   4.175   1.104  0.2521 -0.2810 -0.6489
  265SOL    MW4  834   4.447   4.119   1.049 -0.4843  0.3400  0.0860
  266SOL     OW  835   3.157   0.818   3.976  0.3110 -0.0274  1.0941
  266SOL    HW2  836   3.225   0.757   3.948 -0.5683 -0.2049 -0.8459
  266SOL    HW3  837   3.080   0.793   3.925 -0.7933  1.1269  2.1089
  266SOL    MW4  838   3.156   0.806   3.966  0.4731 -0.4406  0.5557
  267SOL     OW  839   5.294   0.095   0.817 -0.0052  0.3997  0.4051
  267SOL    HW2  840   5.288   0.091   0.722  0.8500 -0.6468  0.3699
  267SOL    HW3  841   5.238   0.023   0.847  0.4115  0.1788  0.6548
  267SOL    MW4  842   5.286   0.085   0.809  0.1143 -0.3679 -0.1550
  268SOL     OW  843   3.165   0.203   3.909 -0.9777 -0.6637 -0.0364
  268SOL    HW2  844   3.190   0.254   3.832 -0.8705  0.1551  0.5216
  268SOL    HW3  845   3.215   0.122   3.902  0.0418 -0.0453 -0.1596
  268SOL    MW4  846   3.175   0.199   3.898  0.4953  0.0754  0.1668
  269SOL     OW  847   0.232   3.899   2.128  0.7696 -0.1704 -0.2468
  269SOL    HW2  848   0.207   3.819   2.084  0.3531  0.2500 -0.7859
  269SOL    HW3  849   0.153   3.929   2.173  1.0881 -0.3928  0.4854
  269SOL    MW4  850   0.219   3.893   2.128  0.2656 -0.3915 -0.3378
  270SOL     OW  851   4.586   1.128   2.334  0.0115 -0.1979 -0.4349
  270SOL    HW2  852   4.621   1.217   2.343  1.2005 -0.4816 -1.8260
  270SOL    HW3  853   4.609   1.085   2.416  1.3665  0.1637 -0.5955
  270SOL    MW4  854   4.594   1.134   2.346  0.0526 -0.2480 -0.3268
  271SOL     OW  855   1.669   3.910   4.085 -0.7011 -0.0470 -0.3661
  271SOL    HW2  856   1.636   3.932   3.998 -0.8140  0.5267 -0.1811
  271SOL    HW3  857   1.607   3.845   4.118 -0.4615 -0.5287 -0.8495
  271SOL    MW4  858   1.657   3.904   4.078 -0.3528  0.4906  0.1444
  272SOL     OW  859   3.801   6.304   5.285 -0.2320  0.5972  0.0797
  272SOL    HW2  860   3.822   6.386   5.241 -0.5850  1.1654  0.9304
  272SOL    HW3  861   3.746   6.257   5.223  1.4226  0.1903 -1.1449
  272SOL    MW4  862   3.797   6.308   5.271  0.5675 -0.0119  0.3263
  273SOL     OW  863   5.785   1.599   3.902 -0.5638  0.3051  0.2359
  273SOL    HW2  864   5.730   1.664   3.858  0.0691  1.3480  0.9298
  273SOL    HW3  865   5.821   1.645   3.978  2.0726  0.0247 -0.7260
  273SOL    MW4  866   5.782   1.614   3.906  0.0649 -0.2162 -0.1411
  274SOL     OW  867   0.758   6.245   2.905  0.3911  0.4792  0.0650
  274SOL    HW2  868   0.682   6.196   2.936  0.0359 -0.0003 -1.4928
  274SOL    HW3  869   0.729   6.336   2.903  0.7992  0.7115  2.2018
  274SOL    MW4  870   0.744   6.250   2.909  0.9440 -0.4495  0.3106
  275SOL     OW  871   4.112   3.927   1.844  0.2333 -0.3102 -0.3927
  275SOL    HW2  872   4.198   3.904   1.880  0.2716 -0.4923 -0.5934
  275SOL    HW3  873   4.123   3.917   1.749 -0.3716 -1.5825 -0.3513
  275SOL    MW4  874   4.125   3.923   1.836  0.4963 -0.1206  0.2450
  276SOL     OW  875   4.056   0.615   4.983  0.5495 -0.2164 -0.4762
  276SOL    HW2  876   4.092   0.658   5.060  0.0871 -0.7381  0.0386
  276SOL    HW3  877   4.105   0.653   4.909  0.4081  0.9137 -0.0129
  276SOL    MW4  878   4.067   0.626   4.983  0.4755 -0.4343  0.2712
  277SOL     OW  879   4.882   1.567   5.737 -0.3785  0.0792 -0.0360
  277SOL    HW2  880   4.832   1.504   5.788 -0.1280  0.4416  0.6665
  277SOL    HW3  881   4.967   1.524   5.723 -0.6409 -0.2570 -0.6548
  277SOL    MW4  882   4.887   1.553   5.742  0.0044  0.5536  0.2992
  278SOL     OW  883   3.495   6.074   1.205 -0.9502 -0.3262  0.5718
  278SOL    HW2  884   3.541   6.105   1.283  0.0050  0.8732 -0.4223
  278SOL    HW3  885   3.415   6.127   1.202 -1.4531 -1.0222  1.2129
  278SOL    MW4  886   3.490   6.085   1.215  0.4143 -0.8080  0.4211
  279SOL     OW  887   2.175   2.326   3.645 -0.8670 -0.4587 -0.2008
  279SOL    HW2  888   2.224   2.265   3.591 -0.5544  0.9370 -1.5887
  279SOL    HW3  889   2.095   2.343   3.595 -0.8494  0.4048  0.0455
  279SOL    MW4  890   2.171   2.321   3.632 -0.7250  0.9301  0.2170
  280SOL     OW  891   5.189   0.308   1.016  0.1455  0.2219 -0.0262
  280SOL    HW2  892   5.238   0.267   0.945  1.5631  3.5451 -1.1600
  280SOL    HW3  893   5.255   0.325   1.083 -0.4567  0.3932  0.5315
  280SOL    MW4  894   5.204   0.304   1.016  0.7499  0.1278  0.1420
  281SOL     OW  895   3.610   4.521   0.413  0.2307  0.1493  0.5132
  281SOL    HW2  896   3.577   4.454   0.473  0.3525 -2.2879 -1.9584
  281SOL    HW3  897   3.704   4.521   0.428  0.3617 -1.0343 -0.1539
  281SOL    MW4  898   3.618   4.512   0.423 -0.3856  0.0932  0.7818
  282SOL     OW  899   2.765   6.243   2.804 -0.5125  0.0525 -0.3526
  282SOL    HW2  900   2.707   6.286   2.867 -0.8810 -0.3721 -0.3997
  282SOL    HW3  901   2.724   6.159   2.787  0.1474 -0.2766 -0.3477
  282SOL    MW4  902   2.752   6.238   2.810 -0.0696  0.4902  0.1868
  283SOL     OW  903   0.926   0.780   1.926 -0.1781 -0.0472 -0.1753
  283SOL    HW2  904   0.857   0.792   1.991  0.2176  0.8185  0.1104
  283SOL    HW3  905   0.880   0.769   1.843 -0.7480 -2.7838  0.4188
  283SOL    MW4  906   0.911   0.780   1.923  0.2842  0.6254  0.4880
  284SOL     OW  907   0.725   2.945   4.259  0.4811 -0.3918  0.1765
  284SOL    HW2  908   0.750   2.853   4.257 -0.6382 -0.7369  0.9094
  284SOL    HW3  909   0.662   2.954   4.187 -3.1045 -1.4213  2.8699
  284SOL    MW4  910   0.720   2.934   4.249 -0.1577 -0.1304  0.1322
  285SOL     OW  911   1.718   1.625   4.895 -0.0407  0.5238 -0.8586
  285SOL    HW2  912   1.719   1.696   4.831 -0.4210  1.1773 -0.1537
  285SOL    HW3  913   1.649   1.649   4.957 -1.4455 -1.3423 -1.5789
  285SOL    MW4  914   1.709   1.638   4.895  0.1391 -0.4124 -0.4927
  286SOL     OW  915   5.506   6.212   4.209  0.3343  0.0210 -0.0168
  286SOL    HW2  916   5.515   6.199   4.115 -0.5721 -0.0049 -0.1068
  286SOL    HW3  917   5.574   6.157   4.248 -0.4772 -1.4414 -0.5836
  286SOL    MW4  918   5.516   6.203   4.202 -0.3796 -0.6353  0.0079
  287SOL     OW  919   1.229   0.849   5.880  0.5128 -0.7330 -0.4577
  287SOL    HW2  920   1.320   0.878   5.888  0.8854 -1.8248 -0.6395
  287SOL    HW3  921   1.187   0.917   5.827  0.3516  1.5859  2.3677
  287SOL    MW4  922   1.236   0.862   5.874  0.0180  0.2136  0.0037
  288SOL     OW  923   4.941   5.266   6.306 -0.0242 -0.1922 -0.3217
  288SOL    HW2  924   4.927   5.202   6.237  0.8098  0.4240 -1.0817
  288SOL    HW3  925   5.036   5.270   6.317 -0.1561 -0.6523  1.2297
  288SOL    MW4  926   4.951   5.258   6.299  0.4354 -0.0299  0.0803
  289SOL     OW  927   2.098   5.763   0.047 -0.0736 -0.2390  0.6061
  289SOL    HW2  928   2.070   5.847   0.010  1.1753  0.4101  1.0508
  289SOL    HW3  929   2.159   5.727  -0.018  2.1797  0.9359  1.9169
  289SOL    MW4  930   2.102   5.769   0.034 -0.1702 -0.5706  0.1849
  290SOL     OW  931   5.586   0.308   2.715 -0.3643 -0.1892  1.2190
  290SOL    HW2  932   5.512   0.334   2.660  0.1270 -0.6586  0.3166
  290SOL    HW3  933   5.646   0.383   2.711 -0.3257 -0.2254  1.1015
  290SOL    MW4  934   5.584   0.321   2.707  0.0243  0.1435 -0.6853
  291SOL     OW  935   5.033   5.471   2.809  0.0022 -0.0992  0.1667
  291SOL    HW2  936   4.953   5.478   2.861 -0.7303  0.3526 -0.9883
  291SOL    HW3  937   5.035   5.551   2.756  0.4543 -0.7693 -0.8677
  291SOL    MW4  938   5.023   5.482   2.809 -0.2640  0.0921 -0.2336
  292SOL     OW  939   3.552   6.134   1.680  0.4891  0.1436  0.3421
  292SOL    HW2  940   3.495   6.187   1.625 -0.0347 -1.4725 -0.7470
  292SOL    HW3  941   3.502   6.119   1.761 -0.5211 -0.9290 -0.4430
  292SOL    MW4  942   3.538   6.139   1.684 -0.1719 -0.1992 -0.0075
  293SOL     OW  943   0.706   4.839   0.425 -0.0352 -0.5538  0.3769
  293SOL    HW2  944   0.691   4.933   0.438  0.2731 -0.6621  1.6938
  293SOL    HW3  945   0.772   4.816   0.491 -1.1161 -1.9643  1.0363
  293SOL    MW4  946   0.713   4.848   0.436 -0.1168  0.9843  0.1007
  294SOL     OW  947   3.577   6.417   3.711 -0.3355 -0.0507 -0.0145
  294SOL    HW2  948   3.546   6.365   3.785  2.4981 -2.0791 -0.0792
  294SOL    HW3  949   3.562   6.508   3.738  0.9185 -0.6762  3.2683
  294SOL    MW4  950   3.571   6.422   3.725 -0.2841 -0.7807 -0.2523
  295SOL     OW  951   6.203   4.317   3.890 -0.3775 -0.7959 -0.0267
  295SOL    HW2  952   6.260   4.284   3.821  0.3599 -1.7484  0.9926
  295SOL    HW3  953   6.117   4.280   3.871 -0.0753 -1.4316 -0.1869
  295SOL    MW4  954   6.199   4.308   3.878  0.8433 -0.0412 -0.2793
  296SOL     OW  955  -0.001   2.561   5.224  0.2372 -0.6009  0.1840
  296SOL    HW2  956   0.093   2.578   5.226  0.1615 -0.1306 -0.0531
  296SOL    HW3  957  -0.041   2.647   5.209 -0.0631 -1.1501 -2.9202
  296SOL    MW4  958   0.006   2.575   5.222  0.7268 -0.0532 -0.0989
  297SOL     OW  959   5.963   1.787   5.396 -0.6545 -0.2762 -0.4152
  297SOL    HW2  960   6.005   1.733   5.329  0.3047  0.8369 -0.7411
  297SOL    HW3  961   6.008   1.765   5.477 -1.6541 -1.4490 -0.1566
  297SOL    MW4  962   5.974   1.777   5.398 -0.6159  0.0083 -0.4164
  298SOL     OW  963   0.405   1.349   4.070 -0.0529  0.1323 -0.3004
  298SOL    HW2  964   0.441   1.267   4.104  0.1394  0.1982 -0.3399
  298SOL    HW3  965   0.442   1.417   4.128 -0.4901  0.1602 -0.0531
  298SOL    MW4  966   0.415   1.347   4.082 -0.5037 -0.5585  1.0607
  299SOL     OW  967   0.705   6.039   0.651  0.5526 -0.3079  0.1429
  299SOL    HW2  968   0.759   6.049   0.573  1.1393 -1.4751  0.3913
  299SOL    HW3  969   0.752   6.086   0.720 -0.5791  1.8197 -0.4344
  299SOL    MW4  970   0.718   6.047   0.650  0.3479  0.2721 -0.1653
  300SOL     OW  971   3.405   2.978   2.633 -0.1263 -0.2233 -0.1597
  300SOL    HW2  972   3.458   2.978   2.713 -1.7498  0.4333  0.9850
  300SOL    HW3  973   3.397   3.071   2.610 -0.8705 -0.2928 -0.2239
  300SOL    MW4  974   3.411   2.991   2.641 -0.0742 -0.2264  0.1472
  301SOL     OW  975   1.685   3.370   4.327 -0.7801  0.1257 -0.0555
  301SOL    HW2  976   1.738   3.292   4.343 -0.1248  0.6306  0.2936
  301SOL    HW3  977   1.613   3.339   4.273 -1.0258 -0.8972  0.8238
  301SOL    MW4  978   1.683   3.356   4.322  0.2691  0.6317  0.3887
  302SOL     OW  979   4.380   5.457   1.513  0.2244  0.1644  0.1795
  302SOL    HW2  980   4.385   5.430   1.605  0.8194 -1.0086 -0.1786
  302SOL    HW3  981   4.341   5.382   1.469  0.8890  0.3203 -0.6857
  302SOL    MW4  982   4.376   5.444   1.520 -0.4824  0.1261 -0.3822
  303SOL     OW  983   3.090   2.332   3.446 -0.3523 -0.0932  0.3269
  303SOL    HW2  984   3.061   2.308   3.534 -0.2161  0.3480  0.4910
  303SOL    HW3  985   3.145   2.258   3.418 -0.2205 -0.1333  0.6945
  303SOL    MW4  986   3.093   2.319   3.454 -0.0658 -0.0413  0.5093
  304SOL     OW  987   1.687   4.179   2.382 -0.1023  0.2515 -0.2103
  304SOL    HW2  988   1.638   4.250   2.423 -0.3063  0.4350 -0.7605
  304SOL    HW3  989   1.621   4.128   2.335  0.0001 -0.4681  0.4022
  304SOL    MW4  990   1.672   4.182   2.381  0.6685  0.2305  0.3527
  305SOL     OW  991   4.768   4.738   3.580 -0.0753  0.0545 -0.3195
  305SOL    HW2  992   4.763   4.714   3.672 -0.7667 -1.0979 -0.6323
  305SOL    HW3  993   4.791   4.831   3.580  1.3620 -0.2789  0.9824
  305SOL    MW4  994   4.770   4.747   3.592  0.0538  0.2958 -0.1237
  306SOL     OW  995   3.834   4.780   5.390  0.2402 -0.4858  0.2866
  306SOL    HW2  996   3.911   4.827   5.359  0.2462 -0.2756  0.6095
  306SOL    HW3  997   3.761   4.822   5.346  0.0267  1.3340  2.2267
  306SOL    MW4  998   3.835   4.792   5.380 -0.2107  0.2878  0.0351
  307SOL     OW  999   5.751   6.003   3.303  0.3022  0.0354 -1.0891
  307SOL    HW2 1000   5.685   5.988   3.371 -0.0083  2.2623 -0.8290
  307SOL    HW3 1001   5.818   5.936   3.320  0.5108  0.8576  1.8157
  307SOL    MW4 1002   5.751   5.992   3.314  0.1925  0.0247 -0.1090
  308SOL     OW 1003   5.640   0.259   1.719  0.6212  0.1845 -0.0524
  308SOL    HW2 1004   5.630   0.342   1.765 -1.2579  0.5903 -1.1155
  308SOL    HW3 1005   5.656   0.284   1.628 -0.9353 -0.5955 -0.5671
  308SOL    MW4 1006   5.641   0.273   1.713  0.0225  0.0615  0.4288
  309SOL     OW 1007   6.078   0.615   3.476  0.1016 -0.9539  0.4335
  309SOL    HW2 1008   6.051   0.530   3.510 -1.2533 -1.2184 -1.1474
  309SOL    HW3 1009   5.998   0.652   3.439  1.0086  0.2975 -0.3554
  309SOL    MW4 1010   6.064   0.609   3.475 -0.1103 -0.4866  0.0447
  310SOL     OW 1011   1.581   3.537   3.968 -0.3072 -0.5889 -0.3535
  310SOL    HW2 1012   1.518   3.594   4.013 -0.7111 -2.2259  1.2890
  310SOL    HW3 1013   1.588   3.573   3.880 -0.4018  2.0675  0.6400
  310SOL    MW4 1014   1.574   3.549   3.962  0.6595 -0.0448 -0.9829
  311SOL     OW 1015   3.685   3.289   3.741 -0.3017  0.0654  0.0476
  311SOL    HW2 1016   3.748   3.307   3.811  2.2004 -0.4664 -1.9211
  311SOL    HW3 1017   3.652   3.376   3.716 -0.5491  0.3392  1.2592
  311SOL    MW4 1018   3.689   3.303   3.747 -0.1772  0.3061  0.2293
  312SOL     OW 1019   1.213   1.708   4.823  0.1002 -0.3028 -0.5576
  312SOL    HW2 1020   1.164   1.626   4.835  0.0469 -0.2881 -0.6797
  312SOL    HW3 1021   1.251   1.726   4.909 -0.2458 -0.2262 -0.4221
  312SOL    MW4 1022   1.212   1.699   4.836  0.5440 -0.5391 -0.6510
  313SOL     OW 1023   2.903   0.852   3.195  0.3967 -0.1185  0.0749
  313SOL    HW2 1024   2.820   0.898   3.206  0.4767  0.1886 -0.5692
  313SOL    HW3 1025   2.879   0.766   3.162  0.2084 -0.7677  1.8079
  313SOL    MW4 1026   2.889   0.847   3.192  0.5400 -0.4306 -0.3191
  314SOL     OW 1027   5.336   5.555   5.403 -0.1225 -0.9983  0.4289
  314SOL    HW2 1028   5.343   5.524   5.493  1.7008 -0.6917  0.4170
  314SOL    HW3 1029   5.369   5.482   5.350  2.0021  0.0143  0.2589
  314SOL    MW4 1030   5.341   5.541   5.408 -0.2025  0.5789  0.2451
  315SOL     OW 1031   5.975   5.524   6.132 -0.0369 -0.6278 -0.3105
  315SOL    HW2 1032   5.934   5.438   6.127 -0.1778 -0.5466 -0.5552
  315SOL    HW3 1033   5.932   5.575   6.064 -0.5496 -0.1135  0.3821
  315SOL    MW4 1034   5.964   5.519   6.123  0.3832  0.2508 -0.0516
  316SOL     OW 1035   4.120   1.574   1.290  0.2801 -0.2796 -0.5953
  316SOL    HW2 1036   4.164   1.648   1.247  0.6838  0.7379  1.4419
  316SOL    HW3 1037   4.180   1.549   1.360 -0.9717 -0.9500  0.2599
  316SOL    MW4 1038   4.134   1.580   1.294 -0.3887 -0.1626  0.9389
  317SOL     OW 1039   6.157   1.274   3.290 -0.5117 -0.3783 -0.4353
  317SOL    HW2 1040   6.214   1.349   3.313 -0.7208 -0.6822  1.2062
  317SOL    HW3 1041   6.217   1.199   3.288 -0.1244 -0.0696 -3.0672
  317SOL    MW4 1042   6.173   1.274   3.293 -0.4493 -0.5624  0.4208
  318SOL     OW 1043   5.434   0.079   2.337  0.5674  0.5229  0.1689
  318SOL    HW2 1044   5.438   0.174   2.346  1.6045  0.4660  0.4740
  318SOL    HW3 1045   5.434   0.047   2.427  1.7982  0.1989  0.0655
  318SOL    MW4 1046   5.435   0.087   2.350  0.5362 -0.5253  0.0657
  319SOL     OW 1047   5.825   5.338   6.325  0.5284 -0.6509 -0.0012
  319SOL    HW2 1048   5.896   5.290   6.368  0.2545 -1.3062 -0.2646
  319SOL    HW3 1049   5.756   5.341   6.391  0.5207 -0.6670 -0.0087
  319SOL    MW4 1050   5.826   5.332   6.339 -0.4009 -0.2480  0.2829
  320SOL     OW 1051   0.802   3.428   3.057  0.3502 -0.2112 -0.1895
  320SOL    HW2 1052   0.880   3.485   3.059 -0.1540  0.4768  0.2464
  320SOL    HW3 1053   0.735   3.482   3.015  0.1671 -0.8982 -0.8021
  320SOL    MW4 1054   0.804   3.443   3.051  0.4720 -0.1737 -0.6204
  321SOL     OW 1055   5.813   5.699   6.290  0.5357  0.3273 -0.0753
  321SOL    HW2 1056   5.831   5.790   6.268  1.8376  0.3155  0.7942
  321SOL    HW3 1057   5.876   5.649   6.238 -1.1169 -0.2104 -1.6367
  321SOL    MW4 1058   5.824   5.704   6.280 -0.7009  0.0878  0.6893
  322SOL     OW 1059   5.068   5.265   0.545 -0.4289  0.1709 -0.1796
  322SOL    HW2 1060   5.075   5.176   0.580 -0.3428  0.5211  0.7351
  322SOL    HW3 1061   5.054   5.320   0.623 -1.9043  0.8021 -0.8648
  322SOL    MW4 1062   5.067   5.261   0.560  0.2248 -0.2888 -0.0698
  323SOL     OW 1063   0.907   3.477   5.184 -0.3195 -0.0425  0.2704
  323SOL    HW2 1064   0.938   3.418   5.253  1.9715 -0.1078 -0.6980
  323SOL    HW3 1065   0.925   3.430   5.102 -0.8875  0.9356 -0.4451
  323SOL    MW4 1066   0.914   3.463   5.182 -0.1356  0.1987 -0.2361
  324SOL     OW 1067   4.761   2.862   1.523  0.6371  0.2363  0.4961
  324SOL    HW2 1068   4.786   2.808   1.598  1.2260 -0.0633  0.0837
  324SOL    HW3 1069   4.690   2.917   1.557 -1.0579 -1.8302  0.5288
  324SOL    MW4 1070   4.755   2.862   1.538  0.7767  0.2460 -0.1228
  325SOL     OW 1071   1.283   1.441   2.709 -0.2410  0.1699 -0.0229
  325SOL    HW2 1072   1.293   1.425   2.615  0.5016 -1.3436  0.2872
  325SOL    HW3 1073   1.249   1.359   2.744  0.8863  0.2091  1.2408
  325SOL    MW4 1074   1.280   1.428   2.701  0.3937  0.2753  0.4542
  326SOL     OW 1075   2.527   2.270   0.769  0.2651  0.2661  0.4880
  326SOL    HW2 1076   2.573   2.198   0.724  0.4819 -0.0648  1.2256
  326SOL    HW3 1077   2.535   2.344   0.709  2.5895  0.4909  0.9966
  326SOL    MW4 1078   2.534   2.270   0.755  0.2049 -0.5596 -0.1923
  327SOL     OW 1079   1.402   1.873   6.361  0.2847  0.1532  0.5388
  327SOL    HW2 1080   1.439   1.928   6.430 -2.3039 -0.7409  2.8156
  327SOL    HW3 1081   1.369   1.796   6.407 -2.9679  0.1869 -1.4623
  327SOL    MW4 1082   1.403   1.870   6.376  0.2439 -0.0917  0.5488
  328SOL     OW 1083   3.494   5.791   6.353  0.1278  0.1960  0.7702
  328SOL    HW2 1084   3.549   5.725   6.394  1.6475  0.6531 -0.4127
  328SOL    HW3 1085   3.542   5.815   6.273 -0.4272  2.5777  1.0734
  328SOL    MW4 1086   3.508   5.786   6.348  0.1055 -0.1590  0.3462
  329SOL     OW 1087   3.413   6.332   2.990 -0.0537  0.5492 -0.5465
  329SOL    HW2 1088   3.477   6.385   3.037  2.0746 -0.2775 -2.2925
  329SOL    HW3 1089   3.412   6.249   3.038 -0.0191  0.6640 -0.3461
  329SOL    MW4 1090   3.421   6.328   3.003  0.2861  0.1966  0.1609
  330SOL     OW 1091   1.430   4.585   5.674  0.2568  0.2285  0.0258
  330SOL    HW2 1092   1.497   4.598   5.741  0.5653 -0.4047 -0.1536
  330SOL    HW3 1093   1.458   4.507   5.626  0.6004  1.2515 -1.5149
  330SOL    MW4 1094   1.442   4.577   5.677  0.3562  0.3362 -0.0646
  331SOL     OW 1095   3.873   5.422   1.409 -0.1204 -0.4114 -0.2558
  331SOL    HW2 1096   3.852   5.434   1.502  0.3550  3.1322 -0.4759
  331SOL    HW3 1097   3.960   5.381   1.409  0.6011  1.0380  0.9359
  331SOL    MW4 1098   3.881   5.418   1.421 -0.4999 -0.4992  0.0198
  332SOL     OW 1099   0.619   0.041   1.375  0.2473  0.3383 -0.3342
  332SOL    HW2 1100   0.592   0.099   1.304  0.9289  1.6336  0.4272
  332SOL    HW3 1101   0.655  -0.036   1.331 -2.9617 -0.7004 -1.3786
  332SOL    MW4 1102   0.620   0.038   1.360  0.0983 -0.4151 -0.3009
  333SOL     OW 1103   1.760   0.098   4.860  0.1474 -0.3229  0.2933
  333SOL    HW2 1104   1.754   0.111   4.955  0.9499 -0.6693  0.4008
  333SOL    HW3 1105   1.840   0.144   4.835  0.8308 -1.6043  0.0537
  333SOL    MW4 1106   1.770   0.106   4.869 -0.1944  0.1920 -0.2225
  334SOL     OW 1107   0.227   3.608   3.406 -0.2353 -0.7862  0.0033
  334SOL    HW2 1108   0.139   3.618   3.442  0.1382  1.7028  0.4214
  334SOL    HW3 1109   0.241   3.687   3.353  1.8344 -0.9623  0.1749
  334SOL    MW4 1110   0.218   3.620   3.404 -0.2885  0.2386 -0.0348
  335SOL     OW 1111   0.716   5.125   3.341 -0.2213  0.2145  0.0672
  335SOL    HW2 1112   0.754   5.177   3.271 -1.7690  0.4915 -0.6108
  335SOL    HW3 1113   0.635   5.090   3.304  0.0330 -1.4767  0.9956
  335SOL    MW4 1114   0.710   5.127   3.327 -0.8291  0.1413  0.0605
  336SOL     OW 1115   6.117   2.920   4.297 -0.2454 -0.1273  0.0265
  336SOL    HW2 1116   6.167   2.918   4.215  1.3570 -1.0287  0.9643
  336SOL    HW3 1117   6.130   3.008   4.331  0.3688 -0.2100  0.0324
  336SOL    MW4 1118   6.126   2.931   4.291 -0.6156 -0.2452 -0.1452
  337SOL     OW 1119   6.074   3.580   3.021 -0.5787 -0.2836  0.2193
  337SOL    HW2 1120   6.126   3.576   2.941  0.1101  0.5512  0.6056
  337SOL    HW3 1121   6.138   3.575   3.092 -0.7748  2.4336  0.7255
  337SOL    MW4 1122   6.089   3.579   3.020  0.0122 -0.9003 -0.1589
  338SOL     OW 1123   3.217   4.581   3.148 -0.1196 -0.5897  0.2355
  338SOL    HW2 1124   3.287   4.517   3.132 -1.0428 -1.5137 -0.2430
  338SOL    HW3 1125   3.258   4.666   3.134  0.3620 -1.1859 -2.3953
  338SOL    MW4 1126   3.231   4.584   3.144  1.1964 -0.4324 -0.4392
  339SOL     OW 1127   3.645   5.623   5.934  0.0185 -0.5889  0.2475
  339SOL    HW2 1128   3.605   5.699   5.977 -0.1284 -1.8929  2.5694
  339SOL    HW3 1129   3.570   5.571   5.904  0.1195  0.3764 -1.8509
  339SOL    MW4 1130   3.630   5.626   5.936 -0.0082  0.1184 -0.6006
  340SOL     OW 1131   4.063   4.576   5.712 -0.0536  0.0331 -0.0154
  340SOL    HW2 1132   4.046   4.518   5.638 -0.7522  0.3552 -0.1074
  340SOL    HW3 1133   4.067   4.664   5.674 -1.0320  0.2712  0.4110
  340SOL    MW4 1134   4.061   4.580   5.697  0.1019 -0.3996 -0.8908
  341SOL     OW 1135   3.759   2.793   3.497  0.8332  0.1265  0.6609
  341SOL    HW2 1136   3.735   2.703   3.519  2.5100 -0.6215 -0.3721
  341SOL    HW3 1137   3.790   2.788   3.407  1.1437  1.7135  0.6491
  341SOL    MW4 1138   3.760   2.781   3.488 -0.1504  0.4684  0.0971
  342SOL     OW 1139   2.530   5.107   6.236  0.0152  0.0169  0.0626
  342SOL    HW2 1140   2.501   5.030   6.285  3.0770 -0.7360  0.9510
  342SOL    HW3 1141   2.560   5.072   6.152  1.7342  0.0997  0.5968
  342SOL    MW4 1142   2.530   5.092   6.231  0.5153 -0.1202  0.3121
  343SOL     OW 1143   0.229   4.020   3.085 -0.2394 -0.1440 -0.3386
  343SOL    HW2 1144   0.318   4.055   3.087 -0.0458 -0.6161 -0.5867
  343SOL    HW3 1145   0.220   3.983   2.997 -1.2656  1.3840 -0.9142
  343SOL    MW4 1146   0.240   4.019   3.073  0.2809 -0.7554  0.7068
  344SOL     OW 1147   5.504   0.589   5.568  0.3853  0.4442  0.5835
  344SOL    HW2 1148   5.516   0.494   5.564  0.0507  0.4209 -0.0213
  344SOL    HW3 1149   5.576   0.620   5.623  0.2586 -0.1988  1.1209
  344SOL    MW4 1150   5.515   0.580   5.575 -0.2617 -0.0546 -0.0312
  345SOL     OW 1151   5.707   4.502   2.456  0.4638  0.2990 -0.3746
  345SOL    HW2 1152   5.666   4.559   2.521 -0.2959  0.3609 -0.8929
  345SOL    HW3 1153   5.798   4.495   2.484 -0.3116 -1.6434  2.1062
  345SOL    MW4 1154   5.714   4.508   2.468 -0.4587 -0.2703  0.2751
  346SOL     OW 1155   1.644   3.517   0.759  0.2096 -0.0043 -0.1269
  346SOL    HW2 1156   1.602   3.600   0.778 -1.1075 -0.7820  0.4934
  346SOL    HW3 1157   1.577   3.466   0.713  0.4197 -1.3109  0.9633
  346SOL    MW4 1158   1.629   3.521   0.755  0.4726  0.1004 -0.2680
  347SOL     OW 1159   4.993   6.378   4.266  0.2247  0.0394 -0.5767
  347SOL    HW2 1160   4.899   6.360   4.258 -0.2293  1.4557  1.0259
  347SOL    HW3 1161   5.004   6.464   4.226 -0.0214  1.8711  2.9225
  347SOL    MW4 1162   4.982   6.387   4.259  0.2739  0.1656  0.1732
  348SOL     OW 1163   2.357   3.450   5.261 -0.2986 -0.0080  0.4919
  348SOL    HW2 1164   2.351   3.536   5.302  0.3900 -0.4862  1.6644
  348SOL    HW3 1165   2.434   3.455   5.204 -0.3431  0.1913  0.4504
  348SOL    MW4 1166   2.366   3.462   5.259 -0.3530  0.0726  0.4720
  349SOL     OW 1167   2.953   3.849   4.560 -0.1117 -0.1884 -0.4933
  349SOL    HW2 1168   3.034   3.901   4.557  0.0128 -0.3665 -0.2777
  349SOL    HW3 1169   2.980   3.766   4.600 -0.3336 -0.3755 -0.7353
  349SOL    MW4 1170   2.967   3.845   4.565 -0.7133  0.2646  0.0017
  350SOL     OW 1171   3.054   2.957   3.621  0.2522  0.3149  0.6713
  350SOL    HW2 1172   3.116   2.892   3.588  0.0165 -0.6504  2.0148
  350SOL    HW3 1173   2.984   2.959   3.556  1.9812  1.9936 -1.2836
  350SOL    MW4 1174   3.053   2.949   3.608 -0.3062 -0.4411  0.0273
  351SOL     OW 1175   3.588   5.140   2.718 -0.1516  0.2160  0.6511
  351SOL    HW2 1176   3.636   5.060   2.738  0.6032  0.9470  1.8913
  351SOL    HW3 1177   3.649   5.194   2.668  0.3453  1.0966  2.1265
  351SOL    MW4 1178   3.602   5.137   2.714 -0.4591 -0.5746  0.3269
  352SOL     OW 1179   4.106   3.653   5.387 -0.6488  0.0744  0.2019
  352SOL    HW2 1180   4.083   3.704   5.309 -1.1300 -0.6833 -0.1692
  352SOL    HW3 1181   4.202   3.648   5.385 -0.6376  0.3618 -0.1475
  352SOL    MW4 1182   4.116   3.659   5.377 -0.3767 -0.3544 -0.0027
  353SOL     OW 1183   6.245   5.767   0.428 -0.4497 -0.6800 -0.1128
  353SOL    HW2 1184   6.212   5.743   0.514 -1.5392 -0.4822 -0.4508
  353SOL    HW3 1185   6.227   5.861   0.421  1.6222 -0.2053  0.2793
  353SOL    MW4 1186   6.238   5.776   0.438 -0.3685  0.3624 -0.2317
  354SOL     OW 1187   2.857   1.281   2.721  0.3845 -0.0767  0.1446
  354SOL    HW2 1188   2.797   1.289   2.795 -0.1059  0.1357 -0.2675
  354SOL    HW3 1189   2.899   1.195   2.733 -0.3284 -0.4238  0.1987
  354SOL    MW4 1190   2.855   1.271   2.732  0.3345  0.1860 -0.3908
  355SOL     OW 1191   3.002   3.429   0.108 -0.3739 -0.5249  0.2862
  355SOL    HW2 1192   2.981   3.483   0.183 -1.0295 -0.3692 -0.0031
  355SOL    HW3 1193   2.978   3.482   0.032 -1.1471 -1.2589  0.0058
  355SOL    MW4 1194   2.996   3.443   0.108 -0.3724  0.8085 -0.3131
  356SOL     OW 1195   0.704   5.778   0.780 -0.1060  0.4371  0.0167
  356SOL    HW2 1196   0.711   5.867   0.747  0.8003  0.7985  1.1337
  356SOL    HW3 1197   0.737   5.782   0.870 -1.3901 -0.7412  0.5935
  356SOL    MW4 1198   0.709   5.790   0.788 -0.0008  0.5796  0.0591
  357SOL     OW 1199   4.069   5.200   4.049  0.4988 -1.1850  0.4712
  357SOL    HW2 1200   4.120   5.131   4.090  1.2218 -0.9015  0.0713
  357SOL    HW3 1201   4.046   5.260   4.120 -0.6804 -2.1476  0.9359
  357SOL    MW4 1202   4.073   5.199   4.064 -0.2090  0.2171  0.1992
  358SOL     OW 1203   1.338   3.289   1.926  0.1211  0.0685 -0.0871
  358SOL    HW2 1204   1.314   3.271   1.836  0.9413 -1.0179 -0.1157
  358SOL    HW3 1205   1.353   3.384   1.929 -1.0134  0.2925 -0.7955
  358SOL    MW4 1206   1.337   3.299   1.915  0.2026 -0.2697  0.0842
  359SOL     OW 1207   5.479   2.087   4.727  0.6436  0.0473  0.6253
  359SOL    HW2 1208   5.417   2.102   4.798 -0.9486 -0.7731 -0.5079
  359SOL    HW3 1209   5.535   2.015   4.758  2.4467  2.1066  2.4658
  359SOL    MW4 1210   5.478   2.079   4.740 -0.1862 -0.4831  0.3905
  360SOL     OW 1211   3.176   0.917   3.223 -0.0554  0.1446  0.4425
  360SOL    HW2 1212   3.164   1.002   3.266  0.7334  0.2698  0.4199
  360SOL    HW3 1213   3.094   0.903   3.176 -0.2272  0.8508  0.5207
  360SOL    MW4 1214   3.163   0.926   3.223  0.1771  0.0940  0.7647
  361SOL     OW 1215   2.973   1.091   4.440 -0.2936  0.3629 -0.1248
  361SOL    HW2 1216   2.887   1.065   4.473 -0.0501  1.5587  1.5730
  361SOL    HW3 1217   2.974   1.186   4.449 -0.5770  1.0069 -4.6358
  361SOL    MW4 1218   2.961   1.100   4.445 -0.3906 -0.1921 -0.2453
  362SOL     OW 1219   3.130   1.197   6.180  0.3097  0.0220  0.2949
  362SOL    HW2 1220   3.134   1.249   6.100 -1.0061 -0.8153 -0.3452
  362SOL    HW3 1221   3.191   1.241   6.240  1.6258  0.4421 -1.2706
  362SOL    MW4 1222   3.139   1.210   6.178 -0.0667  0.2306  0.2260
  363SOL     OW 1223   2.852   4.272   0.651  0.0613 -0.3331  0.4596
  363SOL    HW2 1224   2.859   4.194   0.705 -0.7413 -0.3990  0.4733
  363SOL    HW3 1225   2.940   4.283   0.614  0.3449 -0.8738  0.9547
  363SOL    MW4 1226   2.865   4.263   0.653 -0.5447 -0.5940  0.2523
  364SOL     OW 1227   6.163   4.216   0.416  0.2744  0.6253  0.5049
  364SOL    HW2 1228   6.127   4.304   0.427  0.8990  0.7905  1.2486
  364SOL    HW3 1229   6.087   4.158   0.424 -0.2570  1.1192 -0.6856
  364SOL    MW4 1230   6.148   4.220   0.418 -0.0907 -0.0579 -0.3578
  365SOL     OW 1231   4.891   1.021   1.710  0.0673 -0.2895  0.0954
  365SOL    HW2 1232   4.811   0.987   1.671  1.3036 -2.1247 -0.9476
  365SOL    HW3 1233   4.897   1.111   1.678 -0.9878 -0.4889 -0.7014
  365SOL    MW4 1234   4.881   1.028   1.701  0.6357 -0.2618  0.6311
  366SOL     OW 1235   0.670   2.239   5.407 -0.3585 -0.3688  0.1508
  366SOL    HW2 1236   0.764   2.249   5.417 -0.4120  1.9180 -0.9605
  366SOL    HW3 1237   0.639   2.209   5.492  1.1374  1.0332  1.2487
  366SOL    MW4 1238   0.678   2.237   5.420  0.2441  0.5717 -0.4811
  367SOL     OW 1239   3.883   5.277   3.413  0.2017 -0.3934  0.0995
  367SOL    HW2 1240   3.933   5.215   3.466 -2.1597 -1.1487  1.5903
  367SOL    HW3 1241   3.905   5.363   3.450  0.1632 -0.7386  0.9355
  367SOL    MW4 1242   3.893   5.280   3.425 -0.1814  0.7624 -0.6071
  368SOL     OW 1243   1.083   3.436   0.742 -0.4326 -0.1682 -0.0889
  368SOL    HW2 1244   1.034   3.511   0.775  1.2785  1.7494 -1.6005
  368SOL    HW3 1245   1.117   3.393   0.821  0.7018  2.2343  0.8458
  368SOL    MW4 1246   1.081   3.440   0.757  0.0068 -0.4043 -0.2787
  369SOL     OW 1247   2.492   2.611   1.300  0.6370  0.1749  1.1133
  369SOL    HW2 1248   2.476   2.517   1.310  0.4138  0.0269 -0.3844
  369SOL    HW3 1249   2.579   2.624   1.337  0.2732 -0.4373  2.2194
  369SOL    MW4 1250   2.502   2.600   1.306 -0.1982  0.0285  0.5354
  370SOL     OW 1251   5.717   1.308   1.789  0.4121 -0.1927  0.1950
  370SOL    HW2 1252   5.809   1.319   1.767  1.0804 -0.4656  2.5978
  370SOL    HW3 1253   5.676   1.278   1.708  1.7041  3.2954 -1.9583
  370SOL    MW4 1254   5.724   1.306   1.775 -0.4551  0.4780  0.1481
  371SOL     OW 1255   5.143   4.619   1.302 -0.3471 -0.0509 -0.6206
  371SOL    HW2 1256   5.183   4.576   1.226  1.5451 -1.1702  0.8993
  371SOL    HW3 1257   5.190   4.702   1.310  1.5403 -1.1772  0.9102
  371SOL    MW4 1258   5.155   4.624   1.293 -0.0306  0.1305 -1.0476
  372SOL     OW 1259   3.888   0.134   5.190 -0.0492  0.3315  0.3614
  372SOL    HW2 1260   3.967   0.185   5.208  0.0477  0.1172  0.5549
  372SOL    HW3 1261   3.824   0.197   5.158  0.3412  0.4430 -0.2174
  372SOL    MW4 1262   3.890   0.149   5.188 -0.3546  0.0300  0.2652
  373SOL     OW 1263   2.870   1.836   2.803  0.0075 -0.5189  0.0029
  373SOL    HW2 1264   2.936   1.898   2.772  0.2721 -0.5258  0.5236
  373SOL    HW3 1265   2.868   1.767   2.737  1.0043 -0.8501  0.2922
  373SOL    MW4 1266   2.879   1.835   2.790  0.8643 -0.0428  0.3702
  374SOL     OW 1267   6.036   3.634   2.630 -0.2007  0.6202 -0.1818
  374SOL    HW2 1268   6.060   3.557   2.579  1.2693  1.8534 -1.4827
  374SOL    HW3 1269   6.055   3.708   2.572 -1.4381  1.9827  1.0528
  374SOL    MW4 1270   6.042   3.634   2.616 -0.1399 -0.3973  0.1028
  375SOL     OW 1271   2.982   3.252   6.236 -0.2917 -0.2479  0.1471
  375SOL    HW2 1272   2.985   3.233   6.142 -0.5750 -2.0012  0.4499
  375SOL    HW3 1273   3.066   3.220   6.269 -0.2655  0.1991  0.5196
  375SOL    MW4 1274   2.994   3.245   6.227  0.3617  0.1319 -0.0355
  376SOL     OW 1275   1.303   1.123   3.210 -0.0365  0.0462  0.5181
  376SOL    HW2 1276   1.274   1.176   3.136 -1.9969  0.6219  1.6333
  376SOL    HW3 1277   1.314   1.035   3.174  1.4868  0.7869 -0.9568
  376SOL    MW4 1278   1.300   1.118   3.195 -0.0862  0.2311 -0.1709
  377SOL     OW 1279   4.273   0.958   4.258 -0.3534  0.0757  0.7836
  377SOL    HW2 1280   4.365   0.967   4.233 -0.8823  2.2566 -0.6777
  377SOL    HW3 1281   4.235   0.901   4.190  0.2922 -2.7781  2.6572
  377SOL    MW4 1282   4.280   0.951   4.245 -0.2018  0.2245 -0.2996
  378SOL     OW 1283   1.622   2.214   1.444  0.2610  0.3147 -0.4620
  378SOL    HW2 1284   1.603   2.122   1.426 -2.7173  0.9389 -1.1209
  378SOL    HW3 1285   1.602   2.225   1.537  1.1315  0.1897 -0.2587
  378SOL    MW4 1286   1.617   2.203   1.454 -0.6608  0.3935  0.7525
  379SOL     OW 1287   5.158   0.829   5.089  0.0689  0.3152 -0.6316
  379SOL    HW2 1288   5.250   0.808   5.104 -0.2215  0.5876  1.9077
  379SOL    HW3 1289   5.146   0.817   4.995  1.8706 -3.0017 -0.5703
  379SOL    MW4 1290   5.169   0.825   5.079  0.1381  0.0304  0.1872
  380SOL     OW 1291   6.094   3.803   3.369  0.0696 -0.3227 -0.2844
  380SOL    HW2 1292   6.031   3.734   3.386  2.0667 -2.3422 -0.6733
  380SOL    HW3 1293   6.147   3.808   3.448  0.6250 -0.0033 -0.6666
  380SOL    MW4 1294   6.092   3.795   3.381  0.1455 -0.1185  0.0406
  381SOL     OW 1295   2.222   4.425   6.406  0.6014 -0.1580 -0.5643
  381SOL    HW2 1296   2.258   4.342   6.374 -1.1004 -0.6575 -1.3280
  381SOL    HW3 1297   2.169   4.457   6.333 -0.8724  0.2791  0.6527
  381SOL    MW4 1298   2.220   4.418   6.392  0.1287  0.4244  0.3197
  382SOL     OW 1299   5.153   1.754   1.272  0.2996  0.4850  0.0846
  382SOL    HW2 1300   5.244   1.734   1.251 -0.1311  0.3696 -1.8747
  382SOL    HW3 1301   5.156   1.845   1.304  1.2957 -0.1215  1.8621
  382SOL    MW4 1302   5.165   1.764   1.273  0.0652 -0.1966 -0.0750
  383SOL     OW 1303   2.599   2.702   5.380 -0.1178  0.3578 -0.0332
  383SOL    HW2 1304   2.669   2.638   5.367 -0.7528 -0.0197 -1.9489
  383SOL    HW3 1305   2.537   2.658   5.439  1.0631  0.5825  1.4391
  383SOL    MW4 1306   2.600   2.688   5.386 -0.0359  0.3568 -0.6676
  384SOL     OW 1307   0.168   4.384   5.119  0.0774 -0.1585 -0.4345
  384SOL    HW2 1308   0.073   4.387   5.122  0.0678 -0.3538 -0.5204
  384SOL    HW3 1309   0.188   4.311   5.060  0.2647  2.0469 -3.3221
  384SOL    MW4 1310   0.158   4.375   5.111 -0.4887  0.4036 -0.1961
  385SOL     OW 1311   1.771   0.527   4.456 -0.0847  0.3888  0.1105
  385SOL    HW2 1312   1.817   0.611   4.450  2.2715 -0.8245 -0.3958
  385SOL    HW3 1313   1.756   0.502   4.365  1.5132 -0.8141  0.1225
  385SOL    MW4 1314   1.775   0.535   4.443  0.2215 -0.1711  0.4709
  386SOL     OW 1315   3.601   3.230   4.821  0.3007  0.2749 -0.1532
  386SOL    HW2 1316   3.680   3.226   4.767 -0.1881  0.0642 -0.8631
  386SOL    HW3 1317   3.604   3.149   4.872  0.1891 -0.0789 -0.6938
  386SOL    MW4 1318   3.612   3.219   4.821  0.2246 -0.0591  0.2124
  387SOL     OW 1319   3.937   2.970   1.270  0.1932  0.0936 -0.4605
  387SOL    HW2 1320   4.008   2.912   1.297 -0.1037  0.0801  0.2968
  387SOL    HW3 1321   3.969   3.058   1.290  0.0306  0.0926 -0.1947
  387SOL    MW4 1322   3.950   2.974   1.276  0.0508 -0.3790 -0.2936
  388SOL     OW 1323   2.135   6.397   2.570  0.1586 -0.0490 -0.0588
  388SOL    HW2 1324   2.197   6.447   2.517  0.2450 -0.2352 -0.1359
  388SOL    HW3 1325   2.185   6.368   2.646  0.2837 -0.5661 -0.3362
  388SOL    MW4 1326   2.150   6.400   2.573 -0.0947 -0.3830 -0.1822
  389SOL     OW 1327   4.886   3.401   3.734 -0.4538 -0.5005  0.0524
  389SOL    HW2 1328   4.817   3.452   3.776 -0.7686 -0.7372 -0.1729
  389SOL    HW3 1329   4.892   3.321   3.787  0.3732 -0.0336  0.6958
  389SOL    MW4 1330   4.878   3.397   3.747  0.7742  0.0012 -0.4163
  390SOL     OW 1331   1.372   3.755   5.561  0.4490  0.3535 -0.1220
  390SOL    HW2 1332   1.424   3.834   5.543 -2.5477  2.1590 -1.7618
  390SOL    HW3 1333   1.352   3.760   5.654  0.0340  1.7568 -0.2598
  390SOL    MW4 1334   1.376   3.766   5.571 -0.2734  0.0876  0.3981
  391SOL     OW 1335   0.933   4.776   3.240  0.1939 -0.2604  0.2988
  391SOL    HW2 1336   1.017   4.811   3.271 -0.2620 -0.4868  1.8746
  391SOL    HW3 1337   0.897   4.845   3.185  1.1978  0.0307 -0.0113
  391SOL    MW4 1338   0.940   4.789   3.237  0.4325  0.5530 -0.0733
  392SOL     OW 1339   0.001   1.417   4.012  0.5527  0.1630 -0.3852
  392SOL    HW2 1340  -0.001   1.496   4.066 -1.1106 -0.4967  0.5817
  392SOL    HW3 1341  -0.079   1.422   3.959  0.7953 -0.5169 -0.8287
  392SOL    MW4 1342  -0.010   1.428   4.012 -0.4265 -0.4505  0.1187
  393SOL     OW 1343   2.005   5.084   4.921 -0.1686  0.4859  1.2522
  393SOL    HW2 1344   2.081   5.051   4.874 -1.1361 -0.0543  0.0194
  393SOL    HW3 1345   1.948   5.119   4.854 -1.4502 -0.0098  2.0347
  393SOL    MW4 1346   2.007   5.084   4.906  0.1935  0.5598  0.1247
  394SOL     OW 1347   2.428   5.880   2.756  0.3425 -0.4163  0.0897
  394SOL    HW2 1348   2.367   5.810   2.734  0.5030 -0.0058 -1.8833
  394SOL    HW3 1349   2.504   5.865   2.699  0.7103  0.8967  0.1844
  394SOL    MW4 1350   2.430   5.869   2.745 -0.2431  0.4448  0.1961
  395SOL     OW 1351   4.767   6.253   4.978  0.0613 -0.0314 -0.2771
  395SOL    HW2 1352   4.720   6.183   4.933  0.4542 -0.0057 -0.7252
  395SOL    HW3 1353   4.724   6.334   4.949  0.7704  0.0373 -1.1737
  395SOL    MW4 1354   4.755   6.255   4.969 -0.0970  0.1285  0.1440
  396SOL     OW 1355   0.517   6.067   3.852 -0.3306 -0.2186 -0.7918
  396SOL    HW2 1356   0.591   6.007   3.839 -0.9632 -0.7879 -1.9253
  396SOL    HW3 1357   0.454   6.017   3.902 -0.0918  0.1571 -0.1070
  396SOL    MW4 1358   0.519   6.052   3.857 -0.0339  0.1068 -0.3697
  397SOL     OW 1359   2.000   1.249   4.714  0.1802  0.8162  0.3034
  397SOL    HW2 1360   1.944   1.202   4.653  0.3373 -0.5759  1.1796
  397SOL    HW3 1361   2.089   1.222   4.691  0.1525 -1.5342  2.4603
  397SOL    MW4 1362   2.004   1.239   4.703  0.7299 -0.7175 -0.2377
  398SOL     OW 1363   5.170   0.407   1.502  0.2983  0.0379 -0.1581
  398SOL    HW2 1364   5.180   0.323   1.547  0.4048  0.4595  0.6039
  398SOL    HW3 1365   5.234   0.403   1.431 -0.4286 -0.9622 -0.7936
  398SOL    MW4 1366   5.180   0.395   1.498  0.7076 -0.0700 -0.3418
  399SOL     OW 1367   2.607   0.573   3.811  0.1351 -0.2720  0.4383
  399SOL    HW2 1368   2.617   0.562   3.905 -0.9721 -1.7897  0.4283
  399SOL    HW3 1369   2.629   0.664   3.794  0.6564 -0.0580  2.1158
  399SOL    MW4 1370   2.611   0.583   3.821 -0.5800  0.4757 -0.3928
  400SOL     OW 1371   4.976   2.145   2.041 -0.0786  0.3458 -0.5596
  400SOL    HW2 1372   5.006   2.109   2.125 -0.4676 -0.1629 -0.6309
  400SOL    HW3 1373   4.915   2.079   2.008 -0.6999  1.0076 -0.7615
  400SOL    MW4 1374   4.972   2.132   2.048 -0.5508  0.2208  1.0499
  401SOL     OW 1375   1.589   4.377   3.212 -0.4472  0.0915  0.9267
  401SOL    HW2 1376   1.537   4.434   3.156  1.0698  0.4223 -0.2062
  401SOL    HW3 1377   1.577   4.289   3.176 -0.2963  0.1604  0.7043
  401SOL    MW4 1378   1.581   4.373   3.200  0.2841  0.9647 -0.6736
  402SOL     OW 1379   1.504   2.462   6.265 -0.4912 -0.0106 -0.4684
  402SOL    HW2 1380   1.530   2.552   6.247  0.3987  0.3254  2.0645
  402SOL    HW3 1381   1.408   2.464   6.263 -0.5493  1.3864  0.9394
  402SOL    MW4 1382   1.495   2.474   6.263 -0.3611  0.4768 -0.0686
  403SOL     OW 1383   0.504   1.886   1.692  0.5014  0.4468  0.2824
  403SOL    HW2 1384   0.511   1.791   1.688 -0.5586  0.4001 -1.4013
  403SOL    HW3 1385   0.427   1.902   1.746  0.1998  0.3187 -0.1055
  403SOL    MW4 1386   0.495   1.876   1.698  0.3880 -0.0779  0.1269
  404SOL     OW 1387   2.645   5.532   0.314 -0.3145  0.4597 -0.1501
  404SOL    HW2 1388   2.601   5.578   0.242  1.0698 -1.6088 -2.4568
  404SOL    HW3 1389   2.677   5.602   0.371 -1.7872  2.1721 -1.3070
  404SOL    MW4 1390   2.643   5.548   0.312  0.9373  0.3144  0.7616
  405SOL     OW 1391   1.217   4.996   1.568  0.0530  0.0136  0.2952
  405SOL    HW2 1392   1.306   5.029   1.554 -0.6795  1.5755 -1.0469
  405SOL    HW3 1393   1.198   4.946   1.489 -0.2479 -0.4043  0.6258
  405SOL    MW4 1394   1.227   4.994   1.556  0.4183 -0.3003  0.4621
  406SOL     OW 1395   0.970   1.940   1.211 -0.0529  0.3921 -0.0744
  406SOL    HW2 1396   0.960   1.875   1.282 -1.9667  0.4245 -0.2654
  406SOL    HW3 1397   0.884   1.944   1.170  1.0856  0.1207 -2.6752
  406SOL    MW4 1398   0.958   1.932   1.215 -0.3914 -0.2628 -0.1249
  407SOL     OW 1399   3.154   4.778   4.268 -0.2267 -0.3152 -0.3552
  407SOL    HW2 1400   3.174   4.715   4.199 -0.6394 -0.9178  0.0733
  407SOL    HW3 1401   3.070   4.817   4.241 -0.4002 -0.5682 -0.1801
  407SOL    MW4 1402   3.145   4.775   4.255  0.1994  0.0004 -0.1513
  408SOL     OW 1403   0.907   3.287   2.176 -0.2146  0.3259 -0.5306
  408SOL    HW2 1404   0.946   3.279   2.263 -2.1452 -2.0581  0.2359
  408SOL    HW3 1405   0.826   3.336   2.190 -1.5581 -1.7473 -0.4914
  408SOL    MW4 1406   0.901   3.292   2.189 -0.0666  0.3457 -0.2742
  409SOL     OW 1407   5.832   2.042   2.416 -0.2748  0.4873 -0.4958
  409SOL    HW2 1408   5.799   2.030   2.327  0.2366  0.5131 -0.6951
  409SOL    HW3 1409   5.756   2.071   2.466 -0.6400  0.1697 -0.8547
  409SOL    MW4 1410   5.818   2.044   2.410 -0.0218  0.7110 -0.3341
  410SOL     OW 1411   4.541   4.647   4.245  0.1647 -0.2687  0.1796
  410SOL    HW2 1412   4.454   4.634   4.208  0.6301  1.1332 -1.5354
  410SOL    HW3 1413   4.544   4.740   4.268  0.7936 -0.5686  1.4139
  410SOL    MW4 1414   4.530   4.658   4.243  0.0806  0.1524 -0.0229
  411SOL     OW 1415   4.162   1.684   6.260 -0.0626  0.3075 -0.0482
  411SOL    HW2 1416   4.209   1.761   6.293 -2.4942  1.6975  0.3779
  411SOL    HW3 1417   4.141   1.706   6.169 -1.8027  0.7166  0.4237
  411SOL    MW4 1418   4.166   1.697   6.252  0.5373  0.3047  0.4929
  412SOL     OW 1419   0.541   5.718   6.078  0.1036  0.3949 -0.0618
  412SOL    HW2 1420   0.462   5.689   6.032 -0.8034  0.3440  1.4490
  412SOL    HW3 1421   0.508   5.763   6.156  1.5473 -0.8005  1.3055
  412SOL    MW4 1422   0.526   5.720   6.082 -0.1481  0.1667 -0.1799
  413SOL     OW 1423   6.189   2.675   3.884 -0.1236 -0.0319 -0.1059
  413SOL    HW2 1424   6.240   2.693   3.963  2.0417 -0.1545 -1.3923
  413SOL    HW3 1425   6.201   2.581   3.869 -0.7916 -0.0732 -0.4252
  413SOL    MW4 1426   6.197   2.665   3.893  0.0862  0.2856  0.3373
  414SOL     OW 1427   2.241   5.554   0.587  0.0643  0.6156  0.2616
  414SOL    HW2 1428   2.221   5.627   0.645  0.9413  3.0947 -2.3346
  414SOL    HW3 1429   2.276   5.594   0.508  0.9167 -2.6689 -1.2290
  414SOL    MW4 1430   2.243   5.569   0.584  0.4389  0.6354  0.0921
  415SOL     OW 1431   3.481   2.028   4.542  0.4313 -0.0687 -0.2845
  415SOL    HW2 1432   3.552   2.053   4.601 -0.0166  3.1007 -0.8944
  415SOL    HW3 1433   3.415   1.989   4.598  1.9869 -1.6740  0.5102
  415SOL    MW4 1434   3.482   2.026   4.557 -0.0931  0.1410  0.2751
  416SOL     OW 1435   3.849   3.255   4.345 -0.6163 -0.0956 -0.1266
  416SOL    HW2 1436   3.759   3.247   4.374 -0.7641 -1.7533 -0.9327
  416SOL    HW3 1437   3.848   3.221   4.255  0.6448  0.6888 -0.4634
  416SOL    MW4 1438   3.837   3.250   4.337 -0.9573  0.4456 -0.2963
  417SOL     OW 1439   2.284   2.884   5.486 -0.0501 -0.5569  0.5055
  417SOL    HW2 1440   2.198   2.843   5.493 -0.4465 -0.0211 -1.0739
  417SOL    HW3 1441   2.285   2.925   5.400  1.9770 -0.9831  0.2767
  417SOL    MW4 1442   2.273   2.884   5.476  0.5307 -0.4816  0.0671
  418SOL     OW 1443   2.432   0.201   0.720 -0.5582  0.6975 -0.3068
  418SOL    HW2 1444   2.370   0.154   0.664  0.5149  0.3886 -1.2637
  418SOL    HW3 1445   2.456   0.279   0.670 -0.0829  0.7499 -0.0013
  418SOL    MW4 1446   2.427   0.205   0.706  0.0043  0.0338 -0.2270
  419SOL     OW 1447   6.421   1.197   3.539  0.1398  0.0453  0.7995
  419SOL    HW2 1448   6.478   1.211   3.462 -0.8360  2.5887  0.4300
  419SOL    HW3 1449   6.477   1.218   3.614 -0.1524  2.3400  0.4488
  419SOL    MW4 1450   6.436   1.202   3.538 -0.8236 -0.0963  0.1142
  420SOL     OW 1451   4.730   0.135   1.933  0.0864  0.6534 -0.2109
  420SOL    HW2 1452   4.789   0.077   1.981  1.7704  1.7357 -0.8547
  420SOL    HW3 1453   4.663   0.077   1.897 -0.1884 -0.4085  1.8889
  420SOL    MW4 1454   4.729   0.120   1.935  0.4151 -0.1475  0.1135
  421SOL     OW 1455   5.004   1.128   0.790  0.5559 -0.5653 -0.0057
  421SOL    HW2 1456   4.993   1.167   0.877 -0.3164 -1.5022  0.3199
  421SOL    HW3 1457   5.010   1.034   0.806 -2.1934 -1.0125 -1.1259
  421SOL    MW4 1458   5.003   1.121   0.804  0.3935  0.1711 -0.0215
  422SOL     OW 1459   6.316   5.717   6.265  0.1943  0.1875  0.6576
  422SOL    HW2 1460   6.405   5.690   6.288 -0.1712 -0.9544  0.8130
  422SOL    HW3 1461   6.260   5.650   6.303 -0.7110  0.6534  0.1867
  422SOL    MW4 1462   6.320   5.705   6.273  0.4167  0.5969 -0.0713
  423SOL     OW 1463   5.713   1.528   1.959  0.5274  0.4536 -0.5953
  423SOL    HW2 1464   5.716   1.453   1.901  0.5520  0.7323 -0.9536
  423SOL    HW3 1465   5.742   1.602   1.906 -0.5523  0.9197 -0.5635
  423SOL    MW4 1466   5.717   1.528   1.945  0.5559  0.0399 -0.6377
  424SOL     OW 1467   5.174   0.139   2.580  0.0590  0.2787 -0.3652
  424SOL    HW2 1468   5.091   0.147   2.627 -0.2350 -0.7575 -0.6817
  424SOL    HW3 1469   5.218   0.223   2.596 -0.2205  0.1394  1.3668
  424SOL    MW4 1470   5.169   0.151   2.588 -0.5820 -0.1529  0.0289
  425SOL     OW 1471   1.276   0.515   5.285  0.1190 -0.3165  0.8011
  425SOL    HW2 1472   1.185   0.522   5.315 -0.3260 -0.3714 -0.4773
  425SOL    HW3 1473   1.295   0.601   5.247  0.4511 -0.4517  0.6611
  425SOL    MW4 1474   1.267   0.527   5.284  0.5266  0.7638  0.3867
  426SOL     OW 1475   0.433   4.318   4.812 -0.0425 -0.0828 -0.4415
  426SOL    HW2 1476   0.373   4.328   4.738 -0.5184  1.0792  0.0824
  426SOL    HW3 1477   0.393   4.251   4.867  0.6753 -1.4868 -1.5561
  426SOL    MW4 1478   0.420   4.310   4.809  0.1032  0.1344 -0.0198
  427SOL     OW 1479   3.191   5.394   1.331  0.3549 -0.1185  0.0752
  427SOL    HW2 1480   3.123   5.372   1.267  0.9653  0.2081 -0.6990
  427SOL    HW3 1481   3.248   5.317   1.333  1.3419  0.5503 -1.1209
  427SOL    MW4 1482   3.190   5.381   1.323  0.0886 -0.1025  0.5192
  428SOL     OW 1483   6.220   0.710   0.453 -0.6500  0.3570  0.2946
  428SOL    HW2 1484   6.221   0.766   0.376 -0.3425  1.1650  0.8782
  428SOL    HW3 1485   6.293   0.649   0.439 -2.6146 -1.7733 -1.6531
  428SOL    MW4 1486   6.230   0.709   0.441  0.2552  0.6367 -0.4587
  429SOL     OW 1487   0.604   4.320   1.335 -0.3257 -0.2729 -0.1910
  429SOL    HW2 1488   0.626   4.252   1.272 -3.0382 -1.0084 -0.4509
  429SOL    HW3 1489   0.541   4.376   1.290  0.0611  1.0602  0.8429
  429SOL    MW4 1490   0.599   4.318   1.321 -0.3898 -0.0194 -0.1109
  430SOL     OW 1491   5.596   3.124   3.786 -0.4754 -0.3126 -0.3953
  430SOL    HW2 1492   5.557   3.208   3.761 -1.4805 -1.2386 -2.1510
  430SOL    HW3 1493   5.670   3.147   3.841 -1.2877  1.6830 -0.0552
  430SOL    MW4 1494   5.600   3.138   3.790  0.1846  0.4448  0.3065
  431SOL     OW 1495   1.993   6.294   0.557  0.6266  0.2070 -0.5573
  431SOL    HW2 1496   2.059   6.233   0.588 -0.1621 -0.5353 -0.3251
  431SOL    HW3 1497   1.939   6.243   0.497  0.1941  0.7865 -0.6690
  431SOL    MW4 1498   1.995   6.280   0.553  0.5040  0.4634  0.0050
  432SOL     OW 1499   5.584   1.176   2.228 -0.1663 -0.3651 -0.2758
  432SOL    HW2 1500   5.563   1.220   2.310 -0.0286  0.6627 -0.7605
  432SOL    HW3 1501   5.524   1.102   2.224  0.5320 -1.0420  1.2246
  432SOL    MW4 1502   5.573   1.172   2.238  0.4317 -0.0053 -0.1411
  433SOL     OW 1503   5.353   3.728   6.127  0.0377  0.0496 -0.2783
  433SOL    HW2 1504   5.328   3.724   6.035  0.2267 -1.0430 -0.2908
  433SOL    HW3 1505   5.446   3.707   6.129  0.1954  0.7239  0.1096
  433SOL    MW4 1506   5.362   3.725   6.115 -0.2180 -0.1442  0.0829
  434SOL     OW 1507   0.877   5.645   0.609 -0.1970  0.2702  0.3136
  434SOL    HW2 1508   0.812   5.682   0.668  0.1217 -0.4388  1.1212
  434SOL    HW3 1509   0.827   5.584   0.554 -0.5560  1.1944 -0.4098
  434SOL    MW4 1510   0.862   5.642   0.609  0.4572 -0.8379 -0.2669
  435SOL     OW 1511   5.337   4.903   5.676 -0.5558  0.2177  0.7637
  435SOL    HW2 1512   5.250   4.924   5.708 -0.4775  1.4391  0.2085
  435SOL    HW3 1513   5.389   4.892   5.755 -0.8331  1.1863  1.0980
  435SOL    MW4 1514   5.333   4.904   5.691  0.3416 -0.2636 -0.1662
  436SOL     OW 1515   2.577   0.089   6.105 -0.1688  0.0034 -0.5243
  436SOL    HW2 1516   2.490   0.104   6.069  0.4195 -0.3122 -2.1911
  436SOL    HW3 1517   2.564   0.079   6.199 -1.5630  2.8471 -0.3271
  436SOL    MW4 1518   2.564   0.090   6.113  0.3112 -0.5366  0.6658
  437SOL     OW 1519   6.327   1.352   2.530 -0.4860 -0.4166  0.6879
  437SOL    HW2 1520   6.402   1.383   2.581  0.5471 -0.3118 -0.8270
  437SOL    HW3 1521   6.360   1.275   2.484 -1.8864 -1.4992  1.4130
  437SOL    MW4 1522   6.342   1.346   2.531  0.3876  0.1402  0.3169
  438SOL     OW 1523   1.799   6.160   0.409  0.4293  0.1491  0.4609
  438SOL    HW2 1524   1.868   6.129   0.350 -0.7779  0.1370 -1.0098
  438SOL    HW3 1525   1.759   6.080   0.443 -1.1622  0.0083 -1.5228
  438SOL    MW4 1526   1.803   6.145   0.406 -0.4370  0.1372 -0.0890
  439SOL     OW 1527   1.770   4.586   3.379 -0.6345 -0.6445 -0.3954
  439SOL    HW2 1528   1.738   4.498   3.397  0.4007 -1.1201 -0.8172
  439SOL    HW3 1529   1.726   4.611   3.298 -1.7480 -0.3308  0.2813
  439SOL    MW4 1530   1.760   4.578   3.371  1.2105 -0.3827  0.1873
  440SOL     OW 1531   5.445   5.074   4.092 -0.5315 -0.6230 -0.5053
  440SOL    HW2 1532   5.403   4.989   4.107 -0.1371 -1.0751 -1.8075
  440SOL    HW3 1533   5.443   5.085   3.997 -0.7711  0.9426 -0.3429
  440SOL    MW4 1534   5.439   5.064   4.082  0.5879 -0.5231  0.1373
  441SOL     OW 1535   1.718   3.535   5.114  0.0251 -0.5125  0.4945
  441SOL    HW2 1536   1.773   3.596   5.162 -2.0131  0.6601  1.4962
  441SOL    HW3 1537   1.679   3.587   5.043  0.5094 -1.4214 -0.4769
  441SOL    MW4 1538   1.720   3.550   5.111  0.0026 -0.7943 -0.2914
  442SOL     OW 1539   0.027   3.922   5.941  0.6150 -0.0285  0.5275
  442SOL    HW2 1540   0.038   4.009   5.902 -1.1545  0.2354  0.5240
  442SOL    HW3 1541   0.106   3.909   5.993  1.2017  1.3160  0.0287
  442SOL    MW4 1542   0.039   3.932   5.943 -0.0340 -0.6591  0.1037
  443SOL     OW 1543   3.594   1.035   4.583  0.4453  0.2650 -0.2213
  443SOL    HW2 1544   3.668   1.076   4.538  0.4416  0.2653 -0.2271
  443SOL    HW3 1545   3.555   1.105   4.634  0.4529  0.2635 -0.2136
  443SOL    MW4 1546   3.598   1.049   4.584  0.3537  0.1663 -1.0552
  444SOL     OW 1547   0.993   0.620   6.239  0.4031  0.0631 -0.1169
  444SOL    HW2 1548   1.016   0.578   6.323  2.4156  1.2529 -0.0131
  444SOL    HW3 1549   0.923   0.681   6.262 -0.9362 -1.4839  0.1515
  444SOL    MW4 1550   0.987   0.622   6.253  0.5139  0.0700  0.0243
  445SOL     OW 1551   3.783   3.271   5.811 -0.1394  0.3044  0.3804
  445SOL    HW2 1552   3.747   3.184   5.792 -0.4954  0.6976 -0.8375
  445SOL    HW3 1553   3.865   3.274   5.760 -1.3169  1.5358 -1.5990
  445SOL    MW4 1554   3.789   3.260   5.801 -0.3302 -0.2699 -0.1988
  446SOL     OW 1555   4.715   4.302   2.746 -0.7318 -0.6966  0.1027
  446SOL    HW2 1556   4.666   4.371   2.789  0.4883 -0.4658  1.1681
  446SOL    HW3 1557   4.664   4.222   2.761 -0.4287 -0.5860  1.8227
  446SOL    MW4 1558   4.702   4.300   2.753  1.1606 -0.7296 -0.1068
  447SOL     OW 1559   4.693   5.128   5.494 -0.2128  0.1784 -0.0964
  447SOL    HW2 1560   4.695   5.033   5.479 -1.7776  0.2133 -0.7048
  447SOL    HW3 1561   4.605   5.154   5.468  0.1482  1.7878  0.2185
  447SOL    MW4 1562   4.682   5.119   5.489  0.6342  0.4123  0.1402
  448SOL     OW 1563  -0.003   4.174   0.558  0.3562 -0.0411  0.2063
  448SOL    HW2 1564  -0.077   4.142   0.506 -0.5108  2.4302 -0.1853
  448SOL    HW3 1565   0.054   4.097   0.568 -2.8882 -2.5139  1.7958
  448SOL    MW4 1566  -0.005   4.160   0.553 -0.1367 -0.5758  0.5204
  449SOL     OW 1567   6.040   5.826   3.929 -0.0133 -0.2955 -0.2858
  449SOL    HW2 1568   5.963   5.801   3.979 -0.1060  0.8813  0.1821
  449SOL    HW3 1569   6.006   5.858   3.846  0.0622 -0.9790 -0.5887
  449SOL    MW4 1570   6.026   5.827   3.925 -0.1484  0.3340  0.2124
  450SOL     OW 1571   4.481   0.143   5.672  0.2343 -0.0588 -0.1954
  450SOL    HW2 1572   4.452   0.190   5.594 -0.5731 -1.6953 -0.9421
  450SOL    HW3 1573   4.560   0.188   5.700 -0.7453  2.0170 -0.5591
  450SOL    MW4 1574   4.487   0.155   5.666  0.0823  0.3607 -0.0252
  451SOL     OW 1575   5.818   3.149   1.970 -0.0288 -0.4639 -0.1214
  451SOL    HW2 1576   5.850   3.091   1.900  3.9960  0.4946  0.7088
  451SOL    HW3 1577   5.773   3.219   1.923 -3.7651 -3.2318 -1.2122
  451SOL    MW4 1578   5.816   3.151   1.954  0.3406 -0.2687 -0.1133
  452SOL     OW 1579   4.904   2.029   4.982  0.3752 -0.2794 -0.4492
  452SOL    HW2 1580   4.998   2.044   4.997  0.3616  1.6719 -1.8293
  452SOL    HW3 1581   4.901   1.971   4.907  0.4969 -0.0851 -0.6072
  452SOL    MW4 1582   4.916   2.024   4.974  0.7680 -0.3848 -0.7790
  453SOL     OW 1583   2.934   4.027   4.021  0.1233 -0.2569  0.4490
  453SOL    HW2 1584   2.861   3.969   3.998  0.3816 -1.4007  2.3372
  453SOL    HW3 1585   2.908   4.066   4.105 -0.7797  3.7452 -1.4478
  453SOL    MW4 1586   2.921   4.025   4.029  0.2378 -0.9662  0.3250
  454SOL     OW 1587   0.052   2.143   2.849  0.7313 -0.1015  0.1345
  454SOL    HW2 1588  -0.043   2.130   2.861  0.3748  2.0527 -0.0360
  454SOL    HW3 1589   0.091   2.097   2.924 -0.3709 -1.6475 -0.1747
  454SOL    MW4 1590   0.044   2.135   2.861  0.0700 -0.8714  0.2256
  455SOL     OW 1591   2.539   4.610   5.607  0.0404  0.4773  0.1543
  455SOL    HW2 1592   2.567   4.660   5.684 -2.1033 -0.6734  1.7776
  455SOL    HW3 1593   2.556   4.519   5.631 -1.1150  0.0679 -0.5336
  455SOL    MW4 1594   2.545   4.604   5.621  0.2107 -0.7060  0.1351
  456SOL     OW 1595   0.613   4.824   3.932 -0.1907  0.1119 -0.4763
  456SOL    HW2 1596   0.645   4.910   3.906 -0.0436  0.8388  1.8750
  456SOL    HW3 1597   0.528   4.816   3.889  0.4838  0.7377 -1.9757
  456SOL    MW4 1598   0.606   4.834   3.923  0.6259 -0.0519 -0.3260
  457SOL     OW 1599   2.678   0.918   4.159  0.1536 -0.4609  0.0022
  457SOL    HW2 1600   2.720   0.938   4.076 -0.4057  1.7488  0.2132
  457SOL    HW3 1601   2.738   0.855   4.201  1.0335 -0.6962 -1.5254
  457SOL    MW4 1602   2.692   0.912   4.154 -0.2958 -0.5059  0.6717
  458SOL     OW 1603   2.893   6.300   4.055 -0.1224 -0.7206  0.2874
  458SOL    HW2 1604   2.930   6.383   4.084 -0.8373 -0.8269  1.5648
  458SOL    HW3 1605   2.802   6.321   4.033 -0.0234 -0.9732 -0.4101
  458SOL    MW4 1606   2.886   6.314   4.056  0.3670 -0.0196 -0.2398
  459SOL     OW 1607   4.373   3.599   3.495 -0.3171  0.4031  0.1246
  459SOL    HW2 1608   4.358   3.680   3.544  0.8476 -0.1992  1.5685
  459SOL    HW3 1609   4.469   3.593   3.489 -0.3221 -1.7119  1.5591
  459SOL    MW4 1610   4.384   3.609   3.500  0.0615 -0.2909  0.3437
  460SOL     OW 1611   6.132   4.908   3.331 -0.3685 -0.4653 -0.2028
  460SOL    HW2 1612   6.056   4.849   3.329 -0.0829 -0.8146 -1.1375
  460SOL    HW3 1613   6.205   4.853   3.303 -0.0682  0.2851 -0.8999
  460SOL    MW4 1614   6.131   4.893   3.327  0.3294 -0.3268  0.2107
  461SOL     OW 1615   2.333   4.210   2.040  0.8591  0.5237 -0.1404
  461SOL    HW2 1616   2.265   4.193   2.106  0.7820 -0.3804 -0.4375
  461SOL    HW3 1617   2.296   4.175   1.959  2.1924 -1.2254 -0.0578
  461SOL    MW4 1618   2.319   4.203   2.038 -0.3635 -1.2065  0.2922
  462SOL     OW 1619   2.162   5.026   2.626  0.0102 -0.1491  0.1482
  462SOL    HW2 1620   2.087   5.009   2.684  0.5101  0.3097  0.9560
  462SOL    HW3 1621   2.220   4.952   2.642  0.0106 -0.1821 -0.0091
  462SOL    MW4 1622   2.159   5.014   2.636 -0.1277  0.3834  0.2787
  463SOL     OW 1623   6.197   1.358   6.184  0.1024  0.3635 -0.4494
  463SOL    HW2 1624   6.261   1.404   6.129  0.1778 -0.2774 -0.8972
  463SOL    HW3 1625   6.196   1.268   6.151  1.9826 -0.7273  2.1076
  463SOL    MW4 1626   6.206   1.352   6.173 -0.2212 -0.6332 -0.1282
  464SOL     OW 1627   0.640   6.059   1.022 -0.4427  0.6305  0.0177
  464SOL    HW2 1628   0.595   6.135   0.985  2.7379  1.6625 -2.1193
  464SOL    HW3 1629   0.579   5.986   1.007 -1.4935  1.9122 -2.6326
  464SOL    MW4 1630   0.626   6.060   1.015 -0.0810  0.4444 -0.5425
  465SOL     OW 1631   4.396   2.401   2.441 -0.0008  0.2786  0.1205
  465SOL    HW2 1632   4.400   2.461   2.516  1.1658 -0.3938  0.6179
  465SOL    HW3 1633   4.318   2.429   2.392 -1.0871  0.4075  1.8429
  465SOL    MW4 1634   4.386   2.413   2.444  0.1006  0.5493  0.4251
  466SOL     OW 1635   1.713   0.466   4.202 -0.6632 -0.2943  0.3013
  466SOL    HW2 1636   1.688   0.378   4.177  0.0297 -0.1637 -0.9169
  466SOL    HW3 1637   1.740   0.508   4.120  1.6116  0.1893  1.2085
  466SOL    MW4 1638   1.713   0.460   4.188  0.0156  0.0765  0.4615
  467SOL     OW 1639   1.388   6.408   1.830  0.2453 -0.4856  0.2773
  467SOL    HW2 1640   1.426   6.345   1.892 -0.7537 -1.3164  0.0564
  467SOL    HW3 1641   1.455   6.477   1.823  0.9334 -1.0235  1.2726
  467SOL    MW4 1642   1.402   6.409   1.838  0.3497 -1.0557 -0.1344
  468SOL     OW 1643   3.602   3.366   2.469  0.2195  0.3682 -0.0253
  468SOL    HW2 1644   3.561   3.450   2.445  0.0898  0.0092 -1.1227
  468SOL    HW3 1645   3.658   3.346   2.395 -0.1391 -0.7694 -0.0045
  468SOL    MW4 1646   3.604   3.375   2.456 -0.8029 -0.3685 -0.8558
  469SOL     OW 1647   0.471   5.653   0.962  0.7282 -0.0336 -1.0184
  469SOL    HW2 1648   0.444   5.661   1.054  1.1630  3.2903 -1.0834
  469SOL    HW3 1649   0.539   5.586   0.963 -0.2198 -1.0534  0.8122
  469SOL    MW4 1650   0.476   5.645   0.974 -0.0486  0.3363  0.5854
  470SOL     OW 1651   0.274   1.176   0.612  0.8803 -0.4517  0.0617
  470SOL    HW2 1652   0.274   1.258   0.661  1.5850  0.2827 -1.1413
  470SOL    HW3 1653   0.300   1.200   0.523 -3.2844 -1.2082 -1.5944
  470SOL    MW4 1654   0.277   1.190   0.607 -0.3036 -0.0079 -0.0813
  471SOL     OW 1655   2.486   1.131   4.763 -0.2446  0.6100 -0.0585
  471SOL    HW2 1656   2.506   1.041   4.790  2.0100  1.3367  0.8822
  471SOL    HW3 1657   2.497   1.130   4.668  0.9101  0.1425  0.0703
  471SOL    MW4 1658   2.490   1.119   4.754  0.7387  0.6105 -0.1073
  472SOL     OW 1659   1.422   3.356   2.620  0.3905  0.1236 -0.5574
  472SOL    HW2 1660   1.428   3.450   2.604 -0.6064  0.3268  0.1563
  472SOL    HW3 1661   1.508   3.332   2.654  0.2081  1.0791  0.6564
  472SOL    MW4 1662   1.434   3.365   2.622 -0.6248  0.1934  0.3308
  473SOL     OW 1663   3.033   0.904   4.192  0.6926  0.0155 -0.1172
  473SOL    HW2 1664   3.064   0.992   4.212  1.5714 -0.0449 -1.0812
  473SOL    HW3 1665   3.083   0.879   4.114  0.7301 -1.4783  0.3618
  473SOL    MW4 1666   3.044   0.912   4.184  0.0973  0.2295  0.0809
  474SOL     OW 1667   3.771   3.092   0.718  0.0968  0.0176  0.1867
  474SOL    HW2 1668   3.690   3.142   0.709  0.1350 -0.0141 -0.3502
  474SOL    HW3 1669   3.768   3.029   0.647  0.0474 -0.7519  0.8499
  474SOL    MW4 1670   3.760   3.090   0.708  0.1170  0.1522 -0.0070
  475SOL     OW 1671   2.561   1.078   6.405  0.0455 -0.5407  0.7925
  475SOL    HW2 1672   2.467   1.066   6.404  0.1486 -1.8842  2.8468
  475SOL    HW3 1673   2.595   1.004   6.454  2.1426  0.2030  0.5828
  475SOL    MW4 1674   2.553   1.067   6.411 -0.1560 -0.7749  0.5500
  476SOL     OW 1675   4.168   0.973   1.070 -0.0521 -0.7199  0.0548
  476SOL    HW2 1676   4.190   0.882   1.053  0.7510 -0.5502  0.1494
  476SOL    HW3 1677   4.185   0.985   1.163 -0.2359 -0.4944  0.0601
  476SOL    MW4 1678   4.173   0.963   1.080 -0.1634 -0.2699  0.2098
  477SOL     OW 1679   6.202   0.566   0.016  0.3402  0.7676  0.3092
  477SOL    HW2 1680   6.158   0.593   0.096 -0.3331 -1.6714  0.8479
  477SOL    HW3 1681   6.282   0.619   0.013  0.4899  0.7857  2.7359
  477SOL    MW4 1682   6.207   0.576   0.026  0.8061 -0.4756 -0.5339
  478SOL     OW 1683   6.358   3.388   5.132 -0.0627  0.1662  0.2259
  478SOL    HW2 1684   6.428   3.323   5.130 -0.4715 -0.3241  1.3699
  478SOL    HW3 1685   6.345   3.412   5.040  2.2837  1.0124  0.0313
  478SOL    MW4 1686   6.366   3.383   5.119 -0.3405  0.4925 -0.5258
  479SOL     OW 1687   5.176   5.495   3.213  0.0889  0.4810  0.5757
  479SOL    HW2 1688   5.215   5.408   3.219  0.6147  0.7484  1.0471
  479SOL    HW3 1689   5.238   5.544   3.159  0.7357  1.0837  1.8391
  479SOL    MW4 1690   5.189   5.490   3.206  0.1994  0.5703  0.3255
  480SOL     OW 1691   1.608   4.465   0.418  0.1463  0.0744 -0.1228
  480SOL    HW2 1692   1.563   4.493   0.338  1.6496 -0.7499 -1.3211
  480SOL    HW3 1693   1.678   4.529   0.430 -0.1827  0.2994  0.6631
  480SOL    MW4 1694   1.611   4.477   0.409  0.4679  0.1404  0.2330
  481SOL     OW 1695   3.199   4.519   5.107 -0.8411  0.0717 -0.6026
  481SOL    HW2 1696   3.193   4.558   5.020 -0.9055 -0.1373 -0.6920
  481SOL    HW3 1697   3.293   4.500   5.117 -0.5134  1.8557  0.1484
  481SOL    MW4 1698   3.211   4.522   5.097 -0.0665 -0.3937  0.3917
  482SOL     OW 1699   1.044   5.431   0.818 -0.3101  0.1937  0.6833
  482SOL    HW2 1700   1.053   5.351   0.868 -2.4514 -0.8772 -0.5129
  482SOL    HW3 1701   1.058   5.501   0.881  1.5622 -1.0629  1.7639
  482SOL    MW4 1702   1.047   5.430   0.833 -0.5571  0.5427  0.0309
  483SOL     OW 1703   2.186   4.975   2.362  0.1769 -0.1085 -0.0352
  483SOL    HW2 1704   2.146   4.993   2.447  0.5284 -0.4284  0.2022
  483SOL    HW3 1705   2.237   5.053   2.342  0.2730 -0.1228  0.1529
  483SOL    MW4 1706   2.187   4.987   2.370 -0.4829  0.4695  0.0865
  484SOL     OW 1707   3.101   3.229   4.868 -0.7550 -0.1860  0.3785
  484SOL    HW2 1708   3.181   3.276   4.844 -0.7386 -0.9088 -1.0933
  484SOL    HW3 1709   3.074   3.185   4.787 -2.2096 -0.5938  1.0517
  484SOL    MW4 1710   3.108   3.230   4.854 -0.1333  0.2813 -0.0419
  485SOL     OW 1711   2.979   2.460   2.544 -0.5651 -0.2055  0.3367
  485SOL    HW2 1712   3.020   2.537   2.585  0.3187  0.0435 -0.9247
  485SOL    HW3 1713   2.925   2.422   2.613  0.2967  0.5853  1.5005
  485SOL    MW4 1714   2.978   2.465   2.558 -0.2594 -0.1284  0.0102
  486SOL     OW 1715   1.860   2.764   5.785 -0.3461 -0.5439  0.0115
  486SOL    HW2 1716   1.850   2.820   5.862 -0.0607  1.2575 -1.2164
  486SOL    HW3 1717   1.849   2.675   5.819  2.5983 -0.0632  2.6666
  486SOL    MW4 1718   1.857   2.760   5.800  0.2359 -0.3421 -0.4016
  487SOL     OW 1719   1.890   4.879   5.395 -0.3697  0.0677 -0.2720
  487SOL    HW2 1720   1.944   4.929   5.335  0.8551  2.7304  2.7659
  487SOL    HW3 1721   1.952   4.823   5.443 -0.9826 -0.2687  0.1474
  487SOL    MW4 1722   1.905   4.878   5.394 -0.3418 -0.5198 -0.5861
  488SOL     OW 1723   4.172   0.402   1.737 -0.3475 -0.1552 -0.4984
  488SOL    HW2 1724   4.213   0.428   1.820  0.2207 -0.2176 -0.7513
  488SOL    HW3 1725   4.226   0.329   1.707 -0.0906  0.3558 -1.2997
  488SOL    MW4 1726   4.185   0.396   1.744 -0.3232  0.7201 -0.2571
  489SOL     OW 1727   0.031   2.402   1.150  0.0294 -0.3082 -0.5608
  489SOL    HW2 1728  -0.031   2.404   1.077 -1.3956 -1.8625  0.5155
  489SOL    HW3 1729   0.016   2.317   1.191 -0.5202  1.1502  2.5596
  489SOL    MW4 1730   0.021   2.391   1.146  0.1632 -0.2402  0.1257
  490SOL     OW 1731   6.073   5.114   2.046 -0.2332 -0.7215 -0.1122
  490SOL    HW2 1732   6.096   5.023   2.066 -0.2514 -0.5829  0.5734
  490SOL    HW3 1733   6.156   5.159   2.036 -0.2050 -0.5553  0.7916
  490SOL    MW4 1734   6.087   5.108   2.047  0.0914 -0.3378  0.1129
  491SOL     OW 1735   5.265   5.368   0.359  0.0945  0.7096 -0.2801
  491SOL    HW2 1736   5.209   5.347   0.433  1.2393 -0.8634  0.2053
  491SOL    HW3 1737   5.252   5.297   0.298  1.8229  0.0700  0.0353
  491SOL    MW4 1738   5.256   5.356   0.361  0.1680 -0.6661 -0.1193
  492SOL     OW 1739   2.943   1.734   4.302  0.3940  0.0321 -0.4574
  492SOL    HW2 1740   2.866   1.791   4.296  0.9255  0.8909  0.4555
  492SOL    HW3 1741   2.995   1.757   4.225  0.0221 -0.1261 -0.7604
  492SOL    MW4 1742   2.940   1.745   4.291 -0.3040  0.3108  0.1796
  493SOL     OW 1743   4.122   4.734   2.273  0.1147 -0.1016  0.1469
  493SOL    HW2 1744   4.192   4.673   2.296 -0.0592 -1.2210 -2.0157
  493SOL    HW3 1745   4.161   4.821   2.286  1.2795 -0.6919  0.7167
  493SOL    MW4 1746   4.137   4.737   2.278  0.1774  0.5830 -0.0288
  494SOL     OW 1747   4.193   4.364   4.828 -0.0325 -0.3639 -0.1369
  494SOL    HW2 1748   4.118   4.419   4.853  1.1575  0.7853  1.0721
  494SOL    HW3 1749   4.267   4.404   4.872  1.0800 -2.3538 -0.1005
  494SOL    MW4 1750   4.193   4.377   4.837  0.2231 -0.2092  0.0305
  495SOL     OW 1751   4.003   4.340   6.109  0.3057 -0.6026  0.3266
  495SOL    HW2 1752   3.982   4.266   6.166  0.9331 -0.0077  1.3631
  495SOL    HW3 1753   3.928   4.346   6.049  0.4273 -2.3133 -0.0494
  495SOL    MW4 1754   3.990   4.331   6.108 -0.0633 -0.0073 -0.1708
  496SOL     OW 1755   5.549   4.978   1.118 -0.1598 -0.0644 -0.1124
  496SOL    HW2 1756   5.628   5.030   1.130  0.3303 -0.5552 -1.1113
  496SOL    HW3 1757   5.548   4.957   1.025 -0.7779 -1.1576  0.1234
  496SOL    MW4 1758   5.559   4.982   1.107  0.1605  0.0390 -0.3355
  497SOL     OW 1759   3.084   2.384   2.153 -0.8128 -0.2513  0.1266
  497SOL    HW2 1760   3.150   2.351   2.214  1.7148  3.0985 -0.5485
  497SOL    HW3 1761   3.079   2.478   2.170 -3.7077  0.0367 -1.5463
  497SOL    MW4 1762   3.092   2.392   2.163 -0.3034  0.1089 -0.3719
  498SOL     OW 1763   3.854   0.238   3.303  0.2763 -0.0521  0.3050
  498SOL    HW2 1764   3.855   0.270   3.213  0.1446 -2.7900 -0.7648
  498SOL    HW3 1765   3.945   0.212   3.320  0.1839 -0.0871  0.7617
  498SOL    MW4 1766   3.866   0.239   3.293  0.3259 -0.0110  0.0855
  499SOL     OW 1767   2.399   1.207   4.173  0.3371  0.3183  0.1866
  499SOL    HW2 1768   2.408   1.127   4.121  0.8887 -0.8816  2.0322
  499SOL    HW3 1769   2.483   1.252   4.163  0.5825 -0.1028  0.3511
  499SOL    MW4 1770   2.411   1.203   4.165  0.4184 -0.4728 -0.7380
  500SOL     OW 1771   2.429   5.029   1.706  0.1467  0.3521  0.0859
  500SOL    HW2 1772   2.356   4.974   1.677  1.5862 -0.7185 -1.7183
  500SOL    HW3 1773   2.387   5.111   1.733 -1.7354 -0.2826 -0.7086
  500SOL    MW4 1774   2.414   5.033   1.706  0.1531  0.4571 -0.1382
  501SOL     OW 1775   1.421   1.525   1.357 -0.1015  0.2868  0.4625
  501SOL    HW2 1776   1.342   1.493   1.401 -0.9800  0.1963 -1.0957
  501SOL    HW3 1777   1.493   1.479   1.399 -0.9825 -0.4759  1.1789
  501SOL    MW4 1778   1.420   1.515   1.368  0.0147  0.2731 -0.1108
  502SOL     OW 1779   1.378   6.123   4.805  0.3195  0.2537  0.7456
  502SOL    HW2 1780   1.299   6.078   4.774 -1.9148  1.8482  3.5979
  502SOL    HW3 1781   1.444   6.055   4.811 -1.0701 -1.3398 -0.8477
  502SOL    MW4 1782   1.376   6.108   4.801 -0.4321 -0.8023  0.5267
  503SOL     OW 1783   5.910   4.372   0.447 -0.0823 -0.8803  0.2285
  503SOL    HW2 1784   5.900   4.434   0.520  0.8579 -1.0744  0.5336
  503SOL    HW3 1785   5.839   4.309   0.460  0.3145 -1.1387  1.2074
  503SOL    MW4 1786   5.899   4.372   0.458 -0.0945  0.0868 -0.5569
  504SOL     OW 1787   1.934   1.067   3.231 -0.3529 -0.2732  0.2557
  504SOL    HW2 1788   1.868   0.998   3.231  0.3803 -1.0112 -0.4834
  504SOL    HW3 1789   1.960   1.076   3.323 -0.9728 -0.4677  0.4533
  504SOL    MW4 1790   1.929   1.059   3.243  0.6712 -0.4309 -0.0076
  505SOL     OW 1791   5.134   4.249   3.185  0.3222  0.7356 -0.3151
  505SOL    HW2 1792   5.185   4.175   3.217  0.5787  1.0555  0.0315
  505SOL    HW3 1793   5.160   4.258   3.094  0.5185  0.5875 -0.2753
  505SOL    MW4 1794   5.144   4.240   3.178 -0.0533  0.0104 -0.0088
  506SOL     OW 1795   4.776   4.219   4.485 -0.4200  0.3181  0.2509
  506SOL    HW2 1796   4.864   4.212   4.521 -0.1279  0.0225 -0.5084
  506SOL    HW3 1797   4.765   4.313   4.466  0.3931  0.1425 -1.2510
  506SOL    MW4 1798   4.786   4.231   4.487 -0.2879 -0.2336  0.2475
  507SOL     OW 1799   3.154   6.405   0.087 -0.4165  0.2722 -0.4875
  507SOL    HW2 1800   3.245   6.405   0.057  0.2295 -0.5318  1.3634
  507SOL    HW3 1801   3.148   6.478   0.148 -0.1348 -1.4303  1.7134
  507SOL    MW4 1802   3.165   6.414   0.091 -0.2154  0.2656  0.1848
  508SOL     OW 1803   5.168   2.989   1.176 -0.5814  0.0978 -0.2036
  508SOL    HW2 1804   5.191   3.048   1.248 -2.9631  1.8279 -0.7474
  508SOL    HW3 1805   5.180   2.901   1.212  1.1175  0.8822  1.3044
  508SOL    MW4 1806   5.173   2.985   1.191 -0.4503 -0.5435  0.4373
  509SOL     OW 1807   3.532   3.532   3.695 -0.2387 -0.4707 -0.1097
  509SOL    HW2 1808   3.588   3.609   3.700  0.1278 -0.7197 -0.3654
  509SOL    HW3 1809   3.469   3.552   3.626  0.6124 -0.8904 -1.0199
  509SOL    MW4 1810   3.531   3.545   3.687  0.2844  0.3012 -0.2364
  510SOL     OW 1811   0.506   1.032   0.643  0.4481  0.1230  0.5776
  510SOL    HW2 1812   0.430   1.090   0.647 -1.3618 -2.1712  2.0612
  510SOL    HW3 1813   0.474   0.948   0.673  2.9280 -1.7402 -1.5155
  510SOL    MW4 1814   0.492   1.029   0.647  0.7873  0.0984 -0.1933
  511SOL     OW 1815   4.120   4.457   1.090  0.1639  0.3191 -0.0501
  511SOL    HW2 1816   4.193   4.425   1.142  0.8344 -1.6953 -2.0524
  511SOL    HW3 1817   4.043   4.441   1.143  0.9629  0.1872  1.0988
  511SOL    MW4 1818   4.119   4.451   1.104 -0.0108 -0.1066  0.4506
  512SOL     OW 1819   6.424   4.756   0.222 -0.0546  0.2809  0.2436
  512SOL    HW2 1820   6.418   4.838   0.173  3.0410  0.6979  0.3889
  512SOL    HW3 1821   6.462   4.694   0.160  0.7151 -0.1080  1.0855
  512SOL    MW4 1822   6.428   4.759   0.207 -0.1752  0.3008 -0.3448
  513SOL     OW 1823   3.381   5.445   0.251  0.5863 -0.2029  0.1175
  513SOL    HW2 1824   3.442   5.491   0.309  0.3594  1.1678 -0.6856
  513SOL    HW3 1825   3.433   5.374   0.214  1.5403  0.5468 -0.0497
  513SOL    MW4 1826   3.396   5.442   0.254 -0.2194 -0.1132  0.3100
  514SOL     OW 1827   3.870   5.726   0.438 -0.4198 -0.0960 -0.0210
  514SOL    HW2 1828   3.951   5.742   0.487 -1.1272 -0.6155  1.3818
  514SOL    HW3 1829   3.868   5.794   0.371 -0.7986  2.5206  2.4623
  514SOL    MW4 1830   3.881   5.737   0.436 -0.0635 -0.0847  0.4855
  515SOL     OW 1831   5.605   5.639   3.388 -0.3099 -0.0621  0.3814
  515SOL    HW2 1832   5.649   5.672   3.309 -1.7753  0.5958 -0.1933
  515SOL    HW3 1833   5.619   5.544   3.386  0.6776  0.0845 -0.0263
  515SOL    MW4 1834   5.613   5.631   3.377  0.5170  0.0072  0.4552
  516SOL     OW 1835   0.698   4.831   4.547  0.6519  0.1637 -0.2367
  516SOL    HW2 1836   0.696   4.921   4.516  0.3069  0.2991  0.1782
  516SOL    HW3 1837   0.678   4.778   4.470 -0.5076  0.5130 -0.1848
  516SOL    MW4 1838   0.695   4.836   4.533 -0.3085  0.6414  0.0731
  517SOL     OW 1839   4.500   4.862   4.012 -0.6172  0.4929  0.0541
  517SOL    HW2 1840   4.575   4.872   4.071 -0.6476 -0.8183  0.3482
  517SOL    HW3 1841   4.516   4.925   3.942 -0.3174  1.7164  1.1841
  517SOL    MW4 1842   4.512   4.872   4.010 -0.0533  0.0210  0.4093
  518SOL     OW 1843   1.095   4.485   2.316  0.3921 -0.0384  0.5579
  518SOL    HW2 1844   1.141   4.539   2.380  1.3298 -0.7464  0.5143
  518SOL    HW3 1845   1.010   4.466   2.356  0.5000  0.5150  1.0620
  518SOL    MW4 1846   1.090   4.490   2.329  0.0807 -0.7888  0.2015
  519SOL     OW 1847   1.541   1.161   1.576 -0.0347 -0.3633  0.2179
  519SOL    HW2 1848   1.466   1.181   1.520  0.7901 -0.2057 -0.8592
  519SOL    HW3 1849   1.512   1.087   1.629 -0.0518 -2.1956 -2.1753
  519SOL    MW4 1850   1.527   1.154   1.575  0.5460  0.3194 -0.1952
  520SOL     OW 1851   5.155   4.755   0.600 -0.1588  0.1537  0.0470
  520SOL    HW2 1852   5.093   4.814   0.558  0.0986  1.1512  1.0192
  520SOL    HW3 1853   5.108   4.719   0.675  0.1206  0.1529  0.2255
  520SOL    MW4 1854   5.141   4.758   0.604 -0.9220 -0.3118 -0.6063
  521SOL     OW 1855   3.548   3.841   3.304  0.3267 -0.4424  0.5417
  521SOL    HW2 1856   3.462   3.818   3.268  0.2178 -1.8621  1.6263
  521SOL    HW3 1857   3.543   3.936   3.318 -0.2055 -0.1140 -1.5640
  521SOL    MW4 1858   3.536   3.851   3.301  0.1348  0.1070  0.3320
  522SOL     OW 1859   0.357   2.031   1.030  0.0865  0.3857 -0.8125
  522SOL    HW2 1860   0.368   1.951   0.979 -0.6963 -0.5498  0.4333
  522SOL    HW3 1861   0.287   2.078   0.984  2.0806  1.5337 -2.8895
  522SOL    MW4 1862   0.349   2.027   1.017 -0.6458  0.0008 -0.0767
  523SOL     OW 1863   4.915   4.537   5.919  0.3148  0.6857 -0.0764
  523SOL    HW2 1864   4.993   4.561   5.870  0.7181  2.1017  1.1640
  523SOL    HW3 1865   4.943   4.536   6.010 -0.5533 -1.2714  0.2185
  523SOL    MW4 1866   4.929   4.540   5.924  0.2281  0.3443  0.6331
  524SOL     OW 1867   1.131   2.231   6.223  0.2345 -0.2351  0.0052
  524SOL    HW2 1868   1.045   2.194   6.202 -0.5535  2.3382 -1.8056
  524SOL    HW3 1869   1.194   2.166   6.193 -1.0169 -1.9992  0.9872
  524SOL    MW4 1870   1.128   2.217   6.217 -0.4417 -0.3951 -0.1037
  525SOL     OW 1871   6.151   4.883   0.810  0.0840 -0.0792 -0.1345
  525SOL    HW2 1872   6.223   4.842   0.761 -0.7119 -0.7610 -0.7675
  525SOL    HW3 1873   6.148   4.834   0.893 -1.5844 -2.1952 -1.3254
  525SOL    MW4 1874   6.160   4.871   0.815 -0.1607 -0.2180  0.1003
  526SOL     OW 1875   5.387   3.029   2.274 -0.2561  0.0640  0.0741
  526SOL    HW2 1876   5.461   3.077   2.236  0.0371 -0.5098 -0.0831
  526SOL    HW3 1877   5.427   2.962   2.328 -0.6573 -0.3741 -0.1669
  526SOL    MW4 1878   5.402   3.027   2.276  0.2875  0.1411  0.4504
  527SOL     OW 1879   5.247   2.737   3.405 -0.3297 -0.0828  0.3404
  527SOL    HW2 1880   5.284   2.673   3.466 -1.6702 -1.3478 -0.0967
  527SOL    HW3 1881   5.244   2.691   3.321 -0.7336  0.7883 -0.1388
  527SOL    MW4 1882   5.252   2.722   3.402 -0.5014  0.6021 -0.5814
  528SOL     OW 1883   1.481   3.168   5.572  0.0583  0.4158  0.2867
  528SOL    HW2 1884   1.522   3.084   5.593 -1.3228  0.3576  3.2222
  528SOL    HW3 1885   1.534   3.233   5.619 -0.4954  0.8657  0.3054
  528SOL    MW4 1886   1.494   3.166   5.581  0.3098 -0.3267 -0.1803
  529SOL     OW 1887   4.137   0.194   3.431  0.2627 -0.0251 -0.0955
  529SOL    HW2 1888   4.226   0.161   3.425  1.2303  2.3935 -0.1070
  529SOL    HW3 1889   4.110   0.175   3.521  1.8363  1.5956  0.7687
  529SOL    MW4 1890   4.145   0.187   3.442  0.4080 -0.5378  0.3795
  530SOL     OW 1891   5.353   1.939   0.018  0.1219 -0.1740 -0.0694
  530SOL    HW2 1892   5.328   1.855   0.057  0.0673  0.1557  0.6275
  530SOL    HW3 1893   5.440   1.922  -0.019 -0.0741 -0.6542 -0.3179
  530SOL    MW4 1894   5.361   1.925   0.018 -0.2226  0.4370  0.0348
  531SOL     OW 1895   6.320   3.920   0.332 -0.1573  0.5153 -0.4709
  531SOL    HW2 1896   6.238   3.937   0.379 -0.1870 -0.2677 -0.2343
  531SOL    HW3 1897   6.355   3.840   0.371 -0.8246 -0.9117 -2.5716
  531SOL    MW4 1898   6.314   3.912   0.343 -0.5164  0.5482  0.1859
  532SOL     OW 1899   5.171   5.182   3.509  0.1320  0.0710 -0.3082
  532SOL    HW2 1900   5.217   5.265   3.518 -0.2723  0.4520 -1.5172
  532SOL    HW3 1901   5.178   5.141   3.595  2.9102  0.0009 -0.4804
  532SOL    MW4 1902   5.178   5.188   3.521  0.1278 -0.6217  0.1031
  533SOL     OW 1903   3.953   3.153   3.482 -0.0794  0.6774  0.3636
  533SOL    HW2 1904   4.032   3.201   3.506 -0.8029  1.9719  0.2842
  533SOL    HW3 1905   3.983   3.085   3.421  0.8579  1.7756 -0.4421
  533SOL    MW4 1906   3.967   3.151   3.477 -0.3200 -0.0709  0.1224
  534SOL     OW 1907   1.861   2.451   1.689 -0.0431  0.7568  0.2622
  534SOL    HW2 1908   1.811   2.526   1.656 -1.4672 -1.3840 -2.9916
  534SOL    HW3 1909   1.948   2.462   1.651 -0.7818 -0.0569 -1.8373
  534SOL    MW4 1910   1.866   2.463   1.680 -0.1293  0.3391  0.3822
  535SOL     OW 1911   6.077   1.582   5.232  0.2844 -0.6241 -0.0652
  535SOL    HW2 1912   5.985   1.581   5.203  0.1645  1.7560  0.0386
  535SOL    HW3 1913   6.127   1.590   5.151  0.2490  0.4179  0.0031
  535SOL    MW4 1914   6.071   1.583   5.217  0.6625  0.3073 -0.4337
  536SOL     OW 1915   6.040   2.280   2.230 -0.4039  0.1399 -0.1049
  536SOL    HW2 1916   6.098   2.344   2.187 -1.9659 -0.7782 -3.9600
  536SOL    HW3 1917   6.095   2.202   2.240  0.8305  1.2012  2.5445
  536SOL    MW4 1918   6.055   2.278   2.226 -0.5411 -0.1218 -0.1082
  537SOL     OW 1919   6.344   2.743   1.037  0.3167 -0.2400 -0.3353
  537SOL    HW2 1920   6.333   2.837   1.053 -0.4239 -0.2294 -0.8345
  537SOL    HW3 1921   6.321   2.701   1.120 -0.2505 -0.0230 -0.3809
  537SOL    MW4 1922   6.340   2.750   1.050 -0.2538  0.5667 -0.5776
  538SOL     OW 1923   1.228   3.435   4.963  0.3233  0.3507  0.0197
  538SOL    HW2 1924   1.276   3.392   4.892  0.1856 -1.0322  0.7198
  538SOL    HW3 1925   1.148   3.384   4.972 -0.7018  1.8397 -0.2631
  538SOL    MW4 1926   1.224   3.423   4.955 -0.4721  0.6355 -0.5730
  539SOL     OW 1927   1.535   1.982   5.962  0.2381  0.4901 -0.4313
  539SOL    HW2 1928   1.578   1.899   5.982 -0.6569 -0.0394 -0.6842
  539SOL    HW3 1929   1.604   2.048   5.972  0.7554 -0.1810  0.6062
  539SOL    MW4 1930   1.550   1.980   5.966  0.1824  0.1691 -0.2245
  540SOL     OW 1931   3.667   5.635   0.126  0.5898  0.3582  0.3217
  540SOL    HW2 1932   3.725   5.701   0.087  0.9597  0.0574  0.3583
  540SOL    HW3 1933   3.614   5.684   0.188 -0.6166  1.0138 -1.1664
  540SOL    MW4 1934   3.668   5.651   0.129 -0.0235  0.3108  0.0686
  541SOL     OW 1935   6.287   3.074   0.569 -0.2957  0.1104  0.0935
  541SOL    HW2 1936   6.264   3.166   0.571 -1.3007 -0.1263  0.0272
  541SOL    HW3 1937   6.240   3.035   0.643 -1.1760 -0.6239 -0.8254
  541SOL    MW4 1938   6.278   3.081   0.579  0.6498 -0.0965  0.7085
  542SOL     OW 1939   3.869   2.895   0.983 -0.5594 -0.8247 -0.0414
  542SOL    HW2 1940   3.790   2.933   0.947 -1.6245 -1.8784  1.0599
  542SOL    HW3 1941   3.880   2.938   1.068 -1.3480 -2.3581  0.8746
  542SOL    MW4 1942   3.860   2.905   0.990 -0.0396  0.3025 -0.1003
  543SOL     OW 1943   6.062   2.413   3.154 -0.6066 -0.0714 -0.0390
  543SOL    HW2 1944   6.095   2.358   3.082 -0.4735 -1.4108  0.9979
  543SOL    HW3 1945   5.986   2.457   3.117 -1.5938 -2.0529 -0.5424
  543SOL    MW4 1946   6.057   2.411   3.140 -0.1176  0.0740 -0.0992
  544SOL     OW 1947   4.069   2.799   4.003  0.6450  0.0713  0.2677
  544SOL    HW2 1948   4.104   2.807   3.914  1.1671  1.5859  0.5810
  544SOL    HW3 1949   3.977   2.776   3.991  0.6052  0.6991 -0.6796
  544SOL    MW4 1950   4.062   2.797   3.990  0.6298  0.3262  0.2330
  545SOL     OW 1951   2.061   6.288   0.260  0.1056 -0.2890  0.0004
  545SOL    HW2 1952   2.044   6.374   0.219 -1.2665 -0.2375  0.6107
  545SOL    HW3 1953   2.154   6.273   0.245 -0.0297  0.3830 -1.8830
  545SOL    MW4 1954   2.071   6.298   0.252 -0.1335  0.1206 -0.4723
  546SOL     OW 1955   4.042   4.452   3.005  0.5498  0.2153 -0.5423
  546SOL    HW2 1956   4.029   4.358   3.020 -1.4459  0.4543 -0.4495
  546SOL    HW3 1957   3.957   4.482   2.974  0.9232  2.1453  0.1936
  546SOL    MW4 1958   4.029   4.443   3.003  0.1513 -0.0451  0.4796
  547SOL     OW 1959   5.835   4.862   0.051 -0.2674 -0.1925 -0.3274
  547SOL    HW2 1960   5.783   4.807   0.110  0.3033 -0.9707 -0.5352
  547SOL    HW3 1961   5.925   4.838   0.069  0.0615  1.3271  0.2038
  547SOL    MW4 1962   5.840   4.852   0.061 -0.2611  0.6934 -0.0837
  548SOL     OW 1963   1.832   1.186   1.785 -0.5672 -0.3299  0.2596
  548SOL    HW2 1964   1.902   1.132   1.823 -0.3032 -3.0619 -3.5221
  548SOL    HW3 1965   1.758   1.126   1.776 -1.4590  0.9174 -1.0317
  548SOL    MW4 1966   1.832   1.171   1.789 -0.4360  0.1350 -0.1986
  549SOL     OW 1967   4.216   5.816   2.717  0.7134 -0.5163  0.3647
  549SOL    HW2 1968   4.289   5.755   2.707  0.3051 -1.4082  2.2609
  549SOL    HW3 1969   4.166   5.781   2.791  0.5075  2.1409  1.6081
  549SOL    MW4 1970   4.219   5.803   2.726  1.0958  0.4811 -0.8420
  550SOL     OW 1971   2.515   2.234   5.722 -0.3411  0.1582 -0.0592
  550SOL    HW2 1972   2.506   2.243   5.817  0.1033 -1.1978  0.1224
  550SOL    HW3 1973   2.514   2.140   5.705 -0.4353  0.3711 -1.4100
  550SOL    MW4 1974   2.513   2.223   5.732 -0.2343  0.0125 -0.1693
  551SOL     OW 1975   2.726   2.758   5.631  0.3254 -0.0281 -0.1958
  551SOL    HW2 1976   2.764   2.691   5.688 -0.7927 -0.0317  0.5744
  551SOL    HW3 1977   2.653   2.714   5.589  0.6116  0.2327 -0.9859
  551SOL    MW4 1978   2.722   2.743   5.633  0.1527  0.3486 -0.1375
  552SOL     OW 1979   5.009   1.236   0.341 -0.0382 -0.5310  0.7537
  552SOL    HW2 1980   5.040   1.204   0.426  0.1423  1.1495  1.3584
  552SOL    HW3 1981   4.918   1.208   0.336  0.3109 -1.7269  0.9308
  552SOL    MW4 1982   5.001   1.228   0.351  0.2337  0.5908  0.0278
  553SOL     OW 1983   4.179   4.201   5.917 -0.4615 -0.6806 -0.6163
  553SOL    HW2 1984   4.111   4.249   5.966  1.8078  0.8026  1.3245
  553SOL    HW3 1985   4.201   4.127   5.973  0.5495 -0.2895 -0.4768
  553SOL    MW4 1986   4.173   4.198   5.931  0.2919 -0.2031  0.0186
  554SOL     OW 1987   4.595   2.642   2.100 -0.2855  0.1513 -0.1814
  554SOL    HW2 1988   4.622   2.644   2.008 -1.7847  0.4849 -0.6447
  554SOL    HW3 1989   4.619   2.554   2.130  0.5966  0.1831 -0.7573
  554SOL    MW4 1990   4.602   2.631   2.092 -0.1575 -0.3732 -0.0821
  555SOL     OW 1991   4.826   3.560   5.354  0.0819 -0.1668 -0.3810
  555SOL    HW2 1992   4.866   3.645   5.333  0.6263 -0.3593 -0.1410
  555SOL    HW3 1993   4.765   3.544   5.282 -1.8317  1.5516  0.7348
  555SOL    MW4 1994   4.823   3.569   5.342  0.3094 -0.0939 -0.6127
  556SOL     OW 1995   2.209   0.411   2.873 -0.2304  0.2764  0.6158
  556SOL    HW2 1996   2.218   0.412   2.777 -0.0908  0.6762  0.6305
  556SOL    HW3 1997   2.259   0.334   2.900  0.3796  0.5959  0.4228
  556SOL    MW4 1998   2.217   0.401   2.864  0.1720 -0.1765 -0.2876
  557SOL     OW 1999   5.209   4.569   3.141 -0.2936  0.5773  0.4303
  557SOL    HW2 2000   5.232   4.662   3.139  0.7053  0.4117  1.9835
  557SOL    HW3 2001   5.199   4.549   3.234  0.4926 -1.0891  0.1913
  557SOL    MW4 2002   5.211   4.579   3.153  0.1840 -0.8306  0.2409
  558SOL     OW 2003   5.159   1.500   6.222 -0.4001  0.2471  0.2874
  558SOL    HW2 2004   5.087   1.564   6.225 -0.6613 -0.0695  1.0313
  558SOL    HW3 2005   5.164   1.465   6.311 -1.8390 -2.5236 -0.6087
  558SOL    MW4 2006   5.150   1.504   6.234  0.3212 -0.1692  0.0000
  559SOL     OW 2007   4.725   3.102   1.084 -0.1613 -0.0294  0.5118
  559SOL    HW2 2008   4.775   3.162   1.139  1.6737 -0.1652 -0.9224
  559SOL    HW3 2009   4.746   3.015   1.118  0.5607 -0.0841 -0.0634
  559SOL    MW4 2010   4.735   3.099   1.096  0.2067  0.4967 -0.5520
  560SOL     OW 2011   4.017   2.340   0.922 -0.0492  0.5669  0.6045
  560SOL    HW2 2012   3.958   2.414   0.936 -1.1882  0.9062 -4.2029
  560SOL    HW3 2013   4.081   2.372   0.858  1.6907 -1.5888  1.1450
  560SOL    MW4 2014   4.017   2.354   0.915 -0.1697 -0.2077  0.5015
  561SOL     OW 2015   1.479   2.518   1.471 -0.2285  0.8836  1.0204
  561SOL    HW2 2016   1.407   2.485   1.525  0.3511  0.0975  1.3224
  561SOL    HW3 2017   1.465   2.477   1.385 -0.9668  1.8847  0.6368
  561SOL    MW4 2018   1.467   2.508   1.467  0.3769  0.2847 -0.1924
  562SOL     OW 2019   3.619   2.626   2.239  0.3698  0.3435 -0.4101
  562SOL    HW2 2020   3.555   2.557   2.220  1.3705  0.1587 -3.8672
  562SOL    HW3 2021   3.573   2.686   2.298 -1.9489 -1.2282 -0.4673
  562SOL    MW4 2022   3.604   2.625   2.244  0.2682  0.1658  0.2248
  563SOL     OW 2023   3.827   3.661   1.372 -0.0226  0.2909  0.2077
  563SOL    HW2 2024   3.869   3.645   1.287 -1.6897  0.4536 -0.7047
  563SOL    HW3 2025   3.744   3.612   1.366  0.4231 -0.8095  2.2929
  563SOL    MW4 2026   3.822   3.652   1.360 -0.5515 -0.1813  0.3674
  564SOL     OW 2027   1.969   1.865   1.397  0.1598  0.6077 -0.3537
  564SOL    HW2 2028   1.934   1.777   1.410  0.2514  0.2935 -1.9935
  564SOL    HW3 2029   2.064   1.852   1.391  0.1807  0.8284 -0.5139
  564SOL    MW4 2030   1.977   1.851   1.398  0.5855  0.3297 -0.6474
  565SOL     OW 2031   3.927   4.558   4.707  0.2253  0.4796  0.3857
  565SOL    HW2 2032   3.911   4.474   4.664  2.0549  0.1560  0.2248
  565SOL    HW3 2033   3.989   4.603   4.650 -0.3327  1.7328  0.7357
  565SOL    MW4 2034   3.933   4.553   4.694  0.0823 -0.2852  0.0462
  566SOL     OW 2035   2.200   0.281   3.756  0.5704 -0.0607  0.1613
  566SOL    HW2 2036   2.130   0.227   3.721  0.9664 -1.3817  1.3053
  566SOL    HW3 2037   2.241   0.321   3.680 -1.7366  1.1939 -0.5130
  566SOL    MW4 2038   2.196   0.279   3.742 -0.1492 -0.4709 -0.1346
  567SOL     OW 2039   3.941   0.961   5.911  0.4382 -0.4396  0.4641
  567SOL    HW2 2040   3.944   0.871   5.879  1.6949  0.0136 -0.8361
  567SOL    HW3 2041   3.871   1.002   5.860 -0.0153 -0.6158  0.9315
  567SOL    MW4 2042   3.932   0.955   5.900 -0.4496 -0.2624 -0.6521
  568SOL     OW 2043   5.637   0.189   4.637 -0.0913  0.0993  0.1480
  568SOL    HW2 2044   5.691   0.233   4.702 -1.5691  2.6823 -0.2404
  568SOL    HW3 2045   5.700   0.142   4.581  1.6416  2.0088  0.3969
  568SOL    MW4 2046   5.653   0.188   4.638  0.0326  0.2242 -0.1648
  569SOL     OW 2047   2.108   3.957   6.175  0.8568  0.1305 -0.2405
  569SOL    HW2 2048   2.166   4.023   6.137 -0.8082  1.1132 -1.2105
  569SOL    HW3 2049   2.147   3.873   6.149  1.5999  0.7566 -1.2172
  569SOL    MW4 2050   2.121   3.955   6.166 -0.1112 -0.5167  0.3628
  570SOL     OW 2051   1.261   5.891   2.599  0.1480 -0.7017  0.3752
  570SOL    HW2 2052   1.209   5.812   2.584 -1.3883  0.2585  0.4167
  570SOL    HW3 2053   1.342   5.860   2.640 -0.3065 -2.2628  0.1383
  570SOL    MW4 2054   1.265   5.877   2.602  0.0737 -0.5865  0.6568
  571SOL     OW 2055   2.378   0.025   4.648 -0.1869 -0.4206 -0.1046
  571SOL    HW2 2056   2.466   0.014   4.614 -0.6033 -0.2614 -1.3020
  571SOL    HW3 2057   2.380   0.110   4.692  1.2227 -2.0241  3.2285
  571SOL    MW4 2058   2.390   0.035   4.649 -0.0393  0.1780 -0.0884
  572SOL     OW 2059   4.659   1.719   1.030  0.1711  0.0649 -0.3748
  572SOL    HW2 2060   4.745   1.763   1.024 -0.6191  1.7027 -0.3613
  572SOL    HW3 2061   4.609   1.755   0.957 -1.3924  1.3104  1.2007
  572SOL    MW4 2062   4.664   1.730   1.020  0.4044  0.0659 -0.3624
  573SOL     OW 2063   2.226   4.966   0.181  0.1060  0.2279 -0.4392
  573SOL    HW2 2064   2.192   4.880   0.154  0.9440  0.2648 -1.6897
  573SOL    HW3 2065   2.215   4.967   0.276 -2.0116 -0.3353 -0.6322
  573SOL    MW4 2066   2.220   4.955   0.190  0.2519 -0.4620 -0.1569
  574SOL     OW 2067   1.039   0.974   2.589 -0.1969  0.4051 -0.3471
  574SOL    HW2 2068   0.948   0.945   2.590 -0.4148  0.8892 -2.5143
  574SOL    HW3 2069   1.039   1.056   2.639 -0.7533 -0.0737  0.4545
  574SOL    MW4 2070   1.027   0.981   2.596 -0.1983 -0.0411 -0.6065
  575SOL     OW 2071   3.270   0.167   3.193  0.4053 -0.0090  0.3247
  575SOL    HW2 2072   3.332   0.240   3.192  1.1985 -0.6681  0.3607
  575SOL    HW3 2073   3.324   0.089   3.210 -0.2962 -0.7174 -0.5643
  575SOL    MW4 2074   3.285   0.166   3.195  0.4188  0.6993 -0.5998
  576SOL     OW 2075   3.997   0.273   4.655 -0.4477 -0.0348  0.1908
  576SOL    HW2 2076   4.008   0.250   4.562 -0.7017  0.8421 -0.0730
  576SOL    HW3 2077   3.951   0.357   4.653 -0.3740  0.0360  1.1141
  576SOL    MW4 2078   3.993   0.281   4.642 -0.3762 -0.1253  0.4630
  577SOL     OW 2079   2.493   5.023   4.865 -0.4164  0.0091  0.5449
  577SOL    HW2 2080   2.512   5.073   4.785 -0.0180  0.8357  1.1411
  577SOL    HW3 2081   2.495   5.088   4.935 -0.9384 -0.6765  1.2137
  577SOL    MW4 2082   2.496   5.038   4.863  0.5243  0.2505  0.4600
  578SOL     OW 2083   0.889   6.405   2.194  0.4421  0.8792  0.1019
  578SOL    HW2 2084   0.807   6.355   2.195  0.6791  0.4771  0.9169
  578SOL    HW3 2085   0.868   6.488   2.236  0.6309  0.4342  1.1285
  578SOL    MW4 2086   0.876   6.409   2.200  0.1194  1.1696 -0.3165
  579SOL     OW 2087   2.940   4.648   6.117  0.2393 -0.0630  0.3823
  579SOL    HW2 2088   3.001   4.720   6.133  1.3193 -0.5527 -1.2793
  579SOL    HW3 2089   2.994   4.579   6.079 -1.2335 -0.7902 -0.4764
  579SOL    MW4 2090   2.955   4.648   6.114  0.0823 -0.7064 -0.0007
  580SOL     OW 2091   2.248   0.313   0.899  1.2039  0.8573  0.5022
  580SOL    HW2 2092   2.313   0.266   0.847  0.1598  0.2997 -0.3454
  580SOL    HW3 2093   2.234   0.257   0.976 -2.0082 -1.7927 -1.7529
  580SOL    MW4 2094   2.255   0.299   0.903 -0.0925  0.0899 -0.2473
  581SOL     OW 2095   3.353   3.618   4.280  0.3438  0.8790 -0.5789
  581SOL    HW2 2096   3.333   3.578   4.364  1.4609  1.6276  0.0653
  581SOL    HW3 2097   3.382   3.545   4.225  0.5979  0.5268  0.0057
  581SOL    MW4 2098   3.354   3.603   4.284  0.8026 -0.1464  0.5399
  582SOL     OW 2099   4.685   1.738   4.041 -0.5756  0.0453  0.9094
  582SOL    HW2 2100   4.697   1.797   3.966  0.4056 -0.9462  0.2524
  582SOL    HW3 2101   4.625   1.671   4.009 -1.4427  0.5036  1.5532
  582SOL    MW4 2102   4.679   1.737   4.027 -1.3390 -0.8647  0.3676
  583SOL     OW 2103   0.560   5.278   5.812  0.3793 -0.0004  0.0355
  583SOL    HW2 2104   0.652   5.304   5.815  0.8924 -1.6145  3.4590
  583SOL    HW3 2105   0.562   5.188   5.778 -0.2611  0.6884 -1.9686
  583SOL    MW4 2106   0.573   5.270   5.808  0.1932  0.5331 -0.4051
  584SOL     OW 2107   5.334   0.709   4.110  0.5174 -0.7843 -0.0729
  584SOL    HW2 2108   5.266   0.677   4.050  0.0187  1.8325 -1.0199
  584SOL    HW3 2109   5.304   0.682   4.197 -0.9284 -1.0329 -0.6204
  584SOL    MW4 2110   5.321   0.701   4.114 -0.3643 -0.2349 -0.3695
  585SOL     OW 2111   5.586   2.463   5.862  0.1441 -0.6523 -0.1589
  585SOL    HW2 2112   5.648   2.494   5.928  0.1004  1.0705 -0.8679
  585SOL    HW3 2113   5.639   2.415   5.799  1.0995  1.9238 -1.4716
  585SOL    MW4 2114   5.601   2.461   5.862  0.2677 -0.6475  0.0269
  586SOL     OW 2115   0.742   4.185   3.698  0.2408  0.3990 -0.5550
  586SOL    HW2 2116   0.672   4.216   3.755  0.8072 -1.4619  1.2650
  586SOL    HW3 2117   0.776   4.264   3.656 -0.7797  1.7307  1.0307
  586SOL    MW4 2118   0.737   4.200   3.700  0.2023  0.8953  0.5841
  587SOL     OW 2119   5.103   3.967   4.397 -0.2330 -0.6794  0.7753
  587SOL    HW2 2120   5.150   3.998   4.320 -1.9822 -1.5569 -0.7456
  587SOL    HW3 2121   5.162   3.903   4.437  0.3211 -0.9530 -0.4379
  587SOL    MW4 2122   5.117   3.962   4.392  0.4492 -0.1975 -0.0188
  588SOL     OW 2123   5.513   1.305   1.580 -0.1482  0.1668 -0.1786
  588SOL    HW2 2124   5.550   1.260   1.504  0.4478  0.4212 -0.0402
  588SOL    HW3 2125   5.506   1.397   1.552  1.6775  0.5948  0.6401
  588SOL    MW4 2126   5.517   1.311   1.566  0.4628  0.0219  0.1924
  589SOL     OW 2127   2.164   2.523   5.995 -0.5988 -0.2389  0.4910
  589SOL    HW2 2128   2.136   2.517   6.087 -0.1199  0.3494  0.6895
  589SOL    HW3 2129   2.154   2.616   5.973  2.1724  0.2750  0.9424
  589SOL    MW4 2130   2.159   2.534   6.005 -0.6481 -0.4573  0.0951
  590SOL     OW 2131   3.588   3.529   1.027 -0.1935 -0.1804  0.6997
  590SOL    HW2 2132   3.667   3.475   1.032 -0.0132  0.0502  0.3992
  590SOL    HW3 2133   3.618   3.618   1.042 -0.5337 -0.1895  1.4563
  590SOL    MW4 2134   3.602   3.534   1.029  0.4780  0.2091  0.3002
  591SOL     OW 2135   0.180   0.591   5.196  1.0966 -0.3769 -0.0916
  591SOL    HW2 2136   0.262   0.576   5.148  1.3059 -0.5926  0.3310
  591SOL    HW3 2137   0.201   0.664   5.255  0.6974  0.2151 -0.6602
  591SOL    MW4 2138   0.194   0.599   5.197 -0.1109 -0.2396 -0.0211
  592SOL     OW 2139   5.398   3.823   0.973  0.1976 -0.0506 -0.1482
  592SOL    HW2 2140   5.433   3.852   1.057  0.6267 -0.8591 -0.0371
  592SOL    HW3 2141   5.359   3.901   0.935 -0.2617  0.2571  0.9331
  592SOL    MW4 2142   5.398   3.837   0.979  0.1401 -0.5157 -0.8402
  593SOL     OW 2143   1.789   4.084   6.392  0.5364 -0.4729 -0.8726
  593SOL    HW2 2144   1.756   4.024   6.325  1.2433  0.1728 -1.8337
  593SOL    HW3 2145   1.881   4.061   6.402  0.6559  0.0397 -0.7866
  593SOL    MW4 2146   1.797   4.073   6.384 -1.0280  0.3005  0.3843
  594SOL     OW 2147   2.384   6.309   4.235 -0.2126 -0.0766  0.0083
  594SOL    HW2 2148   2.356   6.399   4.218 -1.2637 -0.4279 -0.2096
  594SOL    HW3 2149   2.332   6.283   4.311 -1.9747 -1.3932 -1.5611
  594SOL    MW4 2150   2.373   6.318   4.243 -0.0715  0.0151 -0.0901
  595SOL     OW 2151   3.783   2.517   1.721  0.0573 -0.3030  0.3774
  595SOL    HW2 2152   3.874   2.518   1.750  0.4426  1.3593 -0.7951
  595SOL    HW3 2153   3.742   2.591   1.766 -0.8861 -1.3661  1.3312
  595SOL    MW4 2154   3.790   2.527   1.731 -0.4826 -0.7609 -0.4223
  596SOL     OW 2155   4.463   1.811   0.839 -0.1376 -0.6975 -0.1519
  596SOL    HW2 2156   4.441   1.898   0.874  2.0039 -0.3412  0.4899
  596SOL    HW3 2157   4.408   1.751   0.889 -1.5406  0.2507 -0.4797
  596SOL    MW4 2158   4.453   1.815   0.850 -0.2865 -0.2361 -0.3343
  597SOL     OW 2159   3.121   5.307   1.734 -0.6625  0.3185  0.6785
  597SOL    HW2 2160   3.054   5.240   1.722 -0.1778 -0.1002  0.2647
  597SOL    HW3 2161   3.202   5.266   1.703 -0.6064  1.5703 -0.9828
  597SOL    MW4 2162   3.123   5.293   1.728 -0.4057 -0.3191 -0.4512
  598SOL     OW 2163   4.541   0.906   5.408  1.2912  0.5002 -0.2681
  598SOL    HW2 2164   4.464   0.963   5.408  1.5060  0.8545  1.2843
  598SOL    HW3 2165   4.605   0.952   5.355  2.4627  3.2601  3.1569
  598SOL    MW4 2166   4.539   0.919   5.401 -0.1515  0.1826 -0.6584
  599SOL     OW 2167   3.190   4.167   1.694  0.1927  0.3202 -0.0057
  599SOL    HW2 2168   3.138   4.229   1.745  0.8676  1.8876 -1.1448
  599SOL    HW3 2169   3.185   4.200   1.604  1.8406 -0.3999 -0.3976
  599SOL    MW4 2170   3.182   4.180   1.689 -0.1518 -0.5606 -0.3331
  600SOL     OW 2171   3.797   2.884   4.734 -0.2348 -0.6235  0.7176
  600SOL    HW2 2172   3.764   2.920   4.816  0.9952 -1.1088  1.4632
  600SOL    HW3 2173   3.886   2.919   4.727  0.6500 -2.6966  0.9757
  600SOL    MW4 2174   3.804   2.893   4.744 -0.0870  0.5164  0.7783
  601SOL     OW 2175   1.187   5.539   3.618 -0.3849  0.4119 -0.4622
  601SOL    HW2 2176   1.256   5.512   3.558  0.2291 -0.0143  0.4191
  601SOL    HW3 2177   1.161   5.457   3.662 -0.6905  0.7453 -0.0156
  601SOL    MW4 2178   1.192   5.524   3.616 -0.6901 -0.1515  0.2522
  602SOL     OW 2179   1.902   4.722   3.675  0.2056 -0.1237  0.5810
  602SOL    HW2 2180   1.953   4.803   3.670  1.1690 -0.7619 -0.5049
  602SOL    HW3 2181   1.820   4.748   3.716  1.0694  1.1009  1.5991
  602SOL    MW4 2182   1.898   4.736   3.680 -0.2560  0.2383 -0.2587
  603SOL     OW 2183   2.752   2.370   5.628 -0.1641 -0.3725  0.5276
  603SOL    HW2 2184   2.686   2.309   5.662  0.9009 -1.4397  0.7396
  603SOL    HW3 2185   2.768   2.430   5.700 -0.3697 -0.5578  0.7296
  603SOL    MW4 2186   2.746   2.370   5.642 -0.3462  0.0474  0.0460
  604SOL     OW 2187   4.780   0.771   4.868 -0.0637 -0.1563 -0.2315
  604SOL    HW2 2188   4.749   0.737   4.952 -1.2276  0.2917 -0.4664
  604SOL    HW3 2189   4.874   0.786   4.881  0.1026 -1.6581  0.4590
  604SOL    MW4 2190   4.788   0.768   4.881 -0.3504  0.0740  0.0082
  605SOL     OW 2191   0.313   1.815   1.487  0.1580  0.0247 -0.8581
  605SOL    HW2 2192   0.262   1.761   1.548 -1.1516  1.3897 -0.6966
  605SOL    HW3 2193   0.374   1.863   1.544 -0.7855  0.9938 -0.6439
  605SOL    MW4 2194   0.315   1.814   1.503 -0.2111  0.0074  0.5998
  606SOL     OW 2195   2.039   5.947   3.418  0.1277  0.2787  0.0246
  606SOL    HW2 2196   2.036   5.958   3.513 -0.6964  1.4510 -0.1075
  606SOL    HW3 2197   1.949   5.962   3.389  0.4460  0.3614 -0.9756
  606SOL    MW4 2198   2.027   5.951   3.427  0.6325  0.1478  0.8420
  607SOL     OW 2199   3.313   0.624   2.993 -0.5274  0.3581  0.3021
  607SOL    HW2 2200   3.312   0.614   3.089  2.1188  0.1099  0.3882
  607SOL    HW3 2201   3.338   0.538   2.960 -1.6458  0.3809 -0.6614
  607SOL    MW4 2202   3.316   0.612   3.002 -0.1679  0.0485 -0.4437
  608SOL     OW 2203   2.604   2.942   4.099  0.5256  0.3282 -0.2302
  608SOL    HW2 2204   2.563   2.937   4.185  1.6325 -0.3424  0.2899
  608SOL    HW3 2205   2.641   3.031   4.095 -1.2773  1.0887 -0.8815
  608SOL    MW4 2206   2.604   2.953   4.110 -0.0424 -0.0430  0.0322
  609SOL     OW 2207   0.824   2.502   2.379 -0.0213  0.4211  0.2209
  609SOL    HW2 2208   0.873   2.430   2.339  1.2038  0.0652  2.2383
  609SOL    HW3 2209   0.802   2.559   2.306 -0.2591 -1.5300 -1.3215
  609SOL    MW4 2210   0.828   2.500   2.364  0.7537 -0.5905  0.7131
  610SOL     OW 2211   2.223   5.080   2.982 -0.6500  0.0388  0.2682
  610SOL    HW2 2212   2.250   5.050   3.068  0.5050 -1.3324 -0.5228
  610SOL    HW3 2213   2.170   5.158   2.999 -3.8277 -2.3355  2.4567
  610SOL    MW4 2214   2.220   5.086   2.995 -0.9922  0.6500  0.2413
  611SOL     OW 2215   0.721   3.407   0.936 -0.1417 -0.1550 -0.3336
  611SOL    HW2 2216   0.730   3.319   0.899 -0.7885 -0.5218  0.3624
  611SOL    HW3 2217   0.786   3.410   1.007  0.3817  0.1861 -0.8208
  611SOL    MW4 2218   0.731   3.396   0.941  0.6417  0.4592  0.3639
  612SOL     OW 2219   2.644   0.026   4.610 -0.1182  0.0019  0.1576
  612SOL    HW2 2220   2.687   0.093   4.663 -2.0110  1.7685 -0.3872
  612SOL    HW3 2221   2.695  -0.053   4.625  2.1057  1.4964  1.0067
  612SOL    MW4 2222   2.656   0.025   4.619 -0.8736 -0.1778 -0.4318
  613SOL     OW 2223   2.316   1.003   0.515 -0.0291 -0.4889  0.3243
  613SOL    HW2 2224   2.304   1.073   0.580 -0.4277  0.9714 -1.2466
  613SOL    HW3 2225   2.228   0.989   0.479  0.6675  1.1879 -2.2632
  613SOL    MW4 2226   2.302   1.011   0.519  0.6220 -0.2010 -0.2151
  614SOL     OW 2227   0.325   6.268   6.114  0.0140  0.0277 -0.1848
  614SOL    HW2 2228   0.377   6.338   6.074  1.1887  0.6328  2.2357
  614SOL    HW3 2229   0.235   6.289   6.091  0.3638  2.1681  0.1833
  614SOL    MW4 2230   0.320   6.280   6.106  0.3591  0.1300  0.5663
  615SOL     OW 2231   6.047   4.793   2.704 -0.4007  0.4835  0.5015
  615SOL    HW2 2232   5.977   4.859   2.700 -0.0985  0.7478 -0.8023
  615SOL    HW3 2233   6.109   4.820   2.636  0.0750 -0.7598  0.4249
  615SOL    MW4 2234   6.046   4.805   2.694  0.4213  0.4351 -0.2854
  616SOL     OW 2235   0.428   1.181   3.227  0.0636  0.4169 -0.0288
  616SOL    HW2 2236   0.388   1.239   3.162 -2.1185 -1.0891 -0.1233
  616SOL    HW3 2237   0.419   1.228   3.310 -1.2298  0.4573 -0.1713
  616SOL    MW4 2238   0.422   1.195   3.229  0.0437 -0.3717 -0.1345
  617SOL     OW 2239   2.622   6.395   3.918  0.3026 -0.1459 -0.0522
  617SOL    HW2 2240   2.539   6.439   3.899  0.3541 -0.3545 -0.7840
  617SOL    HW3 2241   2.653   6.364   3.833  0.2363 -1.6448  0.4436
  617SOL    MW4 2242   2.615   6.397   3.904  0.6844 -0.2567  0.0715
  618SOL     OW 2243   0.931   2.364   5.388 -0.0172 -0.7955  0.1618
  618SOL    HW2 2244   0.903   2.396   5.302  0.4491 -1.8681 -0.4143
  618SOL    HW3 2245   0.954   2.442   5.437 -0.7615 -0.1312 -0.5178
  618SOL    MW4 2246   0.930   2.378   5.383 -0.2474 -0.0319  0.1285
  619SOL     OW 2247   3.380   4.954   1.198  1.0293 -0.1670 -0.0863
  619SOL    HW2 2248   3.364   4.949   1.104  0.0532 -1.9865  0.1284
  619SOL    HW3 2249   3.328   4.883   1.235  2.7466 -0.6113  1.6435
  619SOL    MW4 2250   3.371   4.944   1.191  0.4038  0.7919 -0.6546
  620SOL     OW 2251   4.984   5.649   0.089  0.2976  1.1132 -0.1407
  620SOL    HW2 2252   4.975   5.709   0.163 -0.4265 -1.4242  1.9830
  620SOL    HW3 2253   4.894   5.631   0.062  0.3097 -0.8534  0.9325
  620SOL    MW4 2254   4.971   5.654   0.095 -0.2699 -0.1983  0.2895
  621SOL     OW 2255   0.957   4.342   0.619  0.6095  0.0292  0.0864
  621SOL    HW2 2256   0.943   4.256   0.661 -0.4672  1.4187  2.8405
  621SOL    HW3 2257   1.034   4.377   0.664  0.9198  0.5968 -0.8824
  621SOL    MW4 2258   0.966   4.335   0.631  0.4996 -0.1822  0.0615
  622SOL     OW 2259   5.218   4.473   1.029 -0.0244 -0.4178 -0.3113
  622SOL    HW2 2260   5.228   4.378   1.034  1.4661 -0.2936 -0.5333
  622SOL    HW3 2261   5.131   4.486   0.992 -0.6764 -1.6702  0.6875
  622SOL    MW4 2262   5.208   4.462   1.025 -0.3757  0.3357 -0.7423
  623SOL     OW 2263   0.430   1.217   1.794 -0.5609 -0.0598 -0.6784
  623SOL    HW2 2264   0.489   1.178   1.729  0.3711 -0.1022  0.1794
  623SOL    HW3 2265   0.449   1.170   1.875 -0.8873  0.7796 -0.1078
  623SOL    MW4 2266   0.440   1.206   1.796  0.0154  0.1120 -1.1835
  624SOL     OW 2267   1.120   4.910   5.502  0.2393  0.3012  0.1765
  624SOL    HW2 2268   1.177   4.948   5.435 -0.6760 -0.3318 -0.9883
  624SOL    HW3 2269   1.109   4.980   5.566  1.8999  0.6027  0.1757
  624SOL    MW4 2270   1.126   4.924   5.501  0.6664 -0.4920 -0.2855
  625SOL     OW 2271   3.464   4.631   2.977  0.3364  0.4725 -0.4450
  625SOL    HW2 2272   3.465   4.647   2.882 -0.1472  1.2028 -0.3363
  625SOL    HW3 2273   3.447   4.717   3.015  1.1862  0.3057  0.3450
  625SOL    MW4 2274   3.462   4.645   2.969  0.6991  0.6343  0.2174
  626SOL     OW 2275   4.077   6.037   5.143 -0.2638  0.0439  0.3481
  626SOL    HW2 2276   4.000   6.007   5.192  0.4349 -0.5685  1.1147
  626SOL    HW3 2277   4.042   6.065   5.058 -1.4342  0.5876  0.9816
  626SOL    MW4 2278   4.062   6.037   5.138  0.2198  0.6674 -0.0064
  627SOL     OW 2279   0.989   2.583   0.750 -0.3144  0.0875 -0.2139
  627SOL    HW2 2280   1.001   2.636   0.829 -1.6955  1.1039 -0.6433
  627SOL    HW3 2281   0.954   2.500   0.781  1.3917 -0.4277  0.4277
  627SOL    MW4 2282   0.986   2.579   0.764  0.0560 -0.1310 -0.0553
  628SOL     OW 2283   0.831   4.611   5.342 -0.0429  0.7062  0.2276
  628SOL    HW2 2284   0.838   4.579   5.432 -1.4018 -0.8734 -0.1929
  628SOL    HW3 2285   0.739   4.599   5.319  0.9787 -3.3911 -2.8954
  628SOL    MW4 2286   0.820   4.605   5.351 -0.2221 -0.2093 -0.3212
  629SOL     OW 2287   2.101   2.919   5.156 -0.2173 -0.2893 -0.1600
  629SOL    HW2 2288   2.177   2.961   5.195  2.0889 -2.3376 -2.0699
  629SOL    HW3 2289   2.028   2.941   5.214  2.5300 -1.6988  4.3045
  629SOL    MW4 2290   2.101   2.927   5.169  0.0054  0.3673 -0.2454
  630SOL     OW 2291   2.753   0.234   4.056 -0.1976  0.1958 -0.4281
  630SOL    HW2 2292   2.811   0.173   4.100 -0.9157  0.1564  0.4904
  630SOL    HW3 2293   2.697   0.178   4.001 -1.3715 -0.0802  1.0004
  630SOL    MW4 2294   2.753   0.219   4.054  0.0665 -0.5167 -1.0852
  631SOL     OW 2295   2.650   1.309   0.684  0.3396 -0.0635 -0.6594
  631SOL    HW2 2296   2.602   1.322   0.766 -0.3031 -2.9183 -0.4709
  631SOL    HW3 2297   2.623   1.381   0.628 -1.3799  0.3987  0.6843
  631SOL    MW4 2298   2.640   1.320   0.687 -0.1195 -0.7622 -0.2918
  632SOL     OW 2299   5.505   4.408   5.644  0.4366 -0.2832  0.1023
  632SOL    HW2 2300   5.579   4.391   5.587  1.0958  3.0343 -0.2447
  632SOL    HW3 2301   5.542   4.454   5.719 -1.0741 -0.0412  0.7499
  632SOL    MW4 2302   5.519   4.412   5.647  0.2464  1.0416 -0.1390
  633SOL     OW 2303   1.390   4.746   1.538  0.7766 -0.0616 -0.1610
  633SOL    HW2 2304   1.394   4.820   1.598  1.6088  0.2903 -0.6299
  633SOL    HW3 2305   1.316   4.694   1.568  1.3267 -0.0291  1.3196
  633SOL    MW4 2306   1.381   4.748   1.550  0.0904 -0.1315 -0.1129
  634SOL     OW 2307   3.838   3.571   3.534  0.3225 -0.3291  0.0621
  634SOL    HW2 2308   3.910   3.594   3.592  0.0235  1.6175 -0.2825
  634SOL    HW3 2309   3.760   3.606   3.577 -0.0242  0.2699 -1.0185
  634SOL    MW4 2310   3.837   3.579   3.547  0.2357 -0.2306 -0.3425
  635SOL     OW 2311   0.183   1.664   6.055  0.7392 -0.0420 -0.1582
  635SOL    HW2 2312   0.164   1.683   6.147  1.5741 -3.5158  0.8662
  635SOL    HW3 2313   0.276   1.684   6.045  1.5510 -2.8783  0.8432
  635SOL    MW4 2314   0.192   1.669   6.066 -0.0582 -0.6760 -0.3802
  636SOL     OW 2315   4.733   4.120   5.778  0.1748 -0.2092 -0.3117
  636SOL    HW2 2316   4.714   4.169   5.698  0.6585  0.4687 -0.0268
  636SOL    HW3 2317   4.781   4.182   5.832 -0.0341 -0.7059  0.4533
  636SOL    MW4 2318   4.737   4.135   5.775 -0.0007  0.2263  0.2978
  637SOL     OW 2319   6.135   2.206   1.363 -0.1009 -0.1679 -0.1074
  637SOL    HW2 2320   6.063   2.261   1.332  0.0216 -0.7589 -1.5065
  637SOL    HW3 2321   6.100   2.163   1.441 -1.1335 -0.1676 -0.5570
  637SOL    MW4 2322   6.121   2.208   1.370  0.4033 -0.7673 -0.2268
  638SOL     OW 2323   4.596   4.470   4.923  0.0765  0.1038  0.1760
  638SOL    HW2 2324   4.560   4.401   4.978  1.0710 -1.5482 -1.1794
  638SOL    HW3 2325   4.519   4.521   4.896 -0.9121 -1.5735 -0.2803
  638SOL    MW4 2326   4.581   4.468   4.927 -0.3208 -0.6697 -0.2691
  639SOL     OW 2327   2.249   0.228   0.151 -0.7206  0.0453 -1.1319
  639SOL    HW2 2328   2.288   0.182   0.224 -2.9592  2.3394  1.7827
  639SOL    HW3 2329   2.154   0.221   0.165 -1.2109  2.4692 -2.4726
  639SOL    MW4 2330   2.241   0.221   0.162 -0.4949 -0.2521  1.0672
  640SOL     OW 2331   2.712   1.130   0.493  0.4315  0.3084 -0.0275
  640SOL    HW2 2332   2.684   1.196   0.557  0.2808 -0.2220  0.4661
  640SOL    HW3 2333   2.680   1.163   0.409 -2.2100 -0.5338  0.5645
  640SOL    MW4 2334   2.704   1.143   0.490 -0.2412 -0.1421 -0.0081
  641SOL     OW 2335   2.556   6.370   2.951 -0.0225 -0.4526 -0.2788
  641SOL    HW2 2336   2.563   6.465   2.941 -0.3496 -0.5074 -1.1241
  641SOL    HW3 2337   2.466   6.350   2.925  0.0745 -1.0047 -0.1988
  641SOL    MW4 2338   2.545   6.380   2.946 -0.6306  0.6539  0.3999
  642SOL     OW 2339   5.142   4.576   3.779  0.0290 -0.2387 -0.2979
  642SOL    HW2 2340   5.213   4.518   3.750 -0.7286 -2.0460  1.2854
  642SOL    HW3 2341   5.063   4.524   3.769 -0.5494  0.0128  2.2835
  642SOL    MW4 2342   5.141   4.562   3.774  0.6683  0.0126  0.1837
  643SOL     OW 2343   3.787   3.042   1.615  0.0770  0.0686 -0.1128
  643SOL    HW2 2344   3.763   2.993   1.537  1.3631 -1.0231  0.1288
  643SOL    HW3 2345   3.722   3.018   1.680  0.4030 -0.9706 -0.1475
  643SOL    MW4 2346   3.775   3.032   1.613 -0.1754  0.6134  0.2071
  644SOL     OW 2347   1.291   6.190   5.434 -0.3319 -0.1464  0.4973
  644SOL    HW2 2348   1.303   6.279   5.469  0.1766  0.5716 -1.3396
  644SOL    HW3 2349   1.201   6.168   5.454 -0.8984  1.3701 -0.1596
  644SOL    MW4 2350   1.281   6.199   5.441 -0.7485  0.1308 -0.3221
  645SOL     OW 2351   0.258   2.104   2.417 -0.1009  0.6664 -0.0655
  645SOL    HW2 2352   0.250   2.099   2.513 -3.3312  1.5474 -0.1874
  645SOL    HW3 2353   0.188   2.048   2.384  2.5610 -1.7975 -2.0874
  645SOL    MW4 2354   0.248   2.096   2.426 -0.5528  0.0416 -0.0285
  646SOL     OW 2355   0.778   0.147   3.584 -0.2441  0.0620  0.0219
  646SOL    HW2 2356   0.755   0.183   3.669 -1.8176  0.6838 -0.6249
  646SOL    HW3 2357   0.753   0.055   3.588 -0.2875  0.0842  0.2391
  646SOL    MW4 2358   0.772   0.140   3.595 -0.3877 -0.5609 -0.4942
  647SOL     OW 2359   4.144   1.108   3.331  0.0904  0.0524  0.2379
  647SOL    HW2 2360   4.100   1.072   3.253  0.1816  0.9716 -0.2545
  647SOL    HW3 2361   4.100   1.065   3.405  1.1360 -2.1376 -0.3136
  647SOL    MW4 2362   4.132   1.097   3.330  0.0708  0.1722 -0.0835
  648SOL     OW 2363   1.773   0.110   5.184  0.9808  0.0648 -0.1322
  648SOL    HW2 2364   1.698   0.057   5.212  2.1162 -1.8435 -0.5269
  648SOL    HW3 2365   1.811   0.142   5.266  0.6222 -0.2424  0.1602
  648SOL    MW4 2366   1.768   0.107   5.199  0.2139 -0.3911 -0.0490
  649SOL     OW 2367   1.791   3.947   2.806 -0.4986  0.0004  0.0723
  649SOL    HW2 2368   1.757   3.858   2.810  1.1714 -0.6552  0.2377
  649SOL    HW3 2369   1.849   3.947   2.730 -0.0281  0.7843  0.4235
  649SOL    MW4 2370   1.794   3.935   2.796  0.1434  0.2311  0.0666
  650SOL     OW 2371   2.335   0.178   2.647  0.8144  0.2848  0.0557
  650SOL    HW2 2372   2.341   0.093   2.690 -0.7813  0.3228  0.4008
  650SOL    HW3 2373   2.346   0.159   2.554 -0.4816 -0.4348  0.0377
  650SOL    MW4 2374   2.337   0.164   2.641  0.5203  0.0856  0.1590
  651SOL     OW 2375   2.402   5.071   0.964  0.2809 -0.5498 -0.3419
  651SOL    HW2 2376   2.421   5.000   0.902  2.1866 -1.0954  0.7986
  651SOL    HW3 2377   2.355   5.028   1.036 -3.0439  0.2891 -1.8200
  651SOL    MW4 2378   2.398   5.056   0.965 -0.4022 -0.3851  0.4782
  652SOL     OW 2379   3.796   6.035   2.480  0.1755  0.0146  0.0824
  652SOL    HW2 2380   3.809   5.972   2.551  2.1345 -0.3663 -0.5370
  652SOL    HW3 2381   3.827   5.989   2.402  1.9712  1.8099 -0.3441
  652SOL    MW4 2382   3.802   6.021   2.479 -0.3552 -0.0670 -0.1333
  653SOL     OW 2383   0.088   5.994   0.037  0.0380  0.1294  0.1982
  653SOL    HW2 2384   0.159   6.035  -0.012  1.4879 -2.2543  0.1338
  653SOL    HW3 2385   0.008   6.031  -0.000  1.1905  0.9787 -1.5387
  653SOL    MW4 2386   0.087   6.004   0.026 -0.2996 -0.6532 -0.0573
  654SOL     OW 2387   4.422   1.978   3.712 -0.6213 -0.1459  0.3214
  654SOL    HW2 2388   4.333   2.011   3.697 -1.6145 -3.0718 -0.9127
  654SOL    HW3 2389   4.479   2.050   3.686 -2.5998  1.1184 -0.8046
  654SOL    MW4 2390   4.418   1.992   3.707 -0.1133  0.3963  0.1230
  655SOL     OW 2391   4.596   0.244   1.132 -0.0147 -0.0891 -0.0785
  655SOL    HW2 2392   4.507   0.230   1.101 -0.2982  1.8344 -0.2728
  655SOL    HW3 2393   4.649   0.185   1.078 -0.9929 -0.0440 -1.1432
  655SOL    MW4 2394   4.591   0.234   1.120  0.4555 -0.0936  0.9671
  656SOL     OW 2395   3.615   3.802   4.104  0.3129 -0.0020  0.0471
  656SOL    HW2 2396   3.572   3.830   4.185 -2.2965 -0.5958 -1.0337
  656SOL    HW3 2397   3.546   3.759   4.054  2.1370 -0.7142 -2.0099
  656SOL    MW4 2398   3.601   3.800   4.108  0.0037  0.8032 -0.3969
  657SOL     OW 2399   5.857   1.843   5.860 -0.3295 -0.2056 -0.0387
  657SOL    HW2 2400   5.820   1.766   5.903 -0.1587  0.7109  1.8135
  657SOL    HW3 2401   5.912   1.806   5.790 -0.7386 -1.7304  0.3920
  657SOL    MW4 2402   5.859   1.828   5.856 -0.1324 -0.2053 -0.0854
  658SOL     OW 2403   1.521   5.744   1.621 -0.1038  0.5524 -0.2160
  658SOL    HW2 2404   1.453   5.717   1.683  0.9577  0.8921  1.1330
  658SOL    HW3 2405   1.480   5.732   1.535 -1.2180 -1.0517  0.4761
  658SOL    MW4 2406   1.507   5.739   1.618  0.8107  0.2869  0.1337
  659SOL     OW 2407   2.113   2.575   2.736  0.0249 -0.0359  0.5884
  659SOL    HW2 2408   2.025   2.544   2.757 -0.1111 -1.1003 -1.3329
  659SOL    HW3 2409   2.126   2.549   2.645  2.2961  0.2014  0.8000
  659SOL    MW4 2410   2.103   2.567   2.727  0.1267  0.9346  0.3654
  660SOL     OW 2411   2.905   0.229   2.791 -0.1663 -0.3772 -0.6984
  660SOL    HW2 2412   2.951   0.285   2.728  1.0531  0.5604  0.9387
  660SOL    HW3 2413   2.946   0.143   2.781  2.4262  0.5547  1.0728
  660SOL    MW4 2414   2.916   0.225   2.781  0.1453 -0.1656 -0.6606
  661SOL     OW 2415   0.231   1.591   4.116 -0.6049 -0.3915 -0.3182
  661SOL    HW2 2416   0.239   1.684   4.138  1.8997 -0.8079  0.8822
  661SOL    HW3 2417   0.304   1.573   4.056 -1.5090 -1.4552 -1.1654
  661SOL    MW4 2418   0.242   1.601   4.111  0.6586  0.4953  0.4004
  662SOL     OW 2419   5.956   1.969   4.546 -0.6943  0.8138 -0.2545
  662SOL    HW2 2420   5.897   2.044   4.545  0.1559  1.4913 -0.1487
  662SOL    HW3 2421   6.044   2.007   4.550 -0.2941 -0.2071  1.0373
  662SOL    MW4 2422   5.960   1.984   4.546 -0.1930 -0.5557 -0.9688
  663SOL     OW 2423   0.086   2.844   4.306  0.1957  0.2322 -0.1249
  663SOL    HW2 2424   0.167   2.843   4.254 -0.1583 -0.4909 -0.6838
  663SOL    HW3 2425   0.042   2.925   4.280  0.4669  0.3426 -0.2459
  663SOL    MW4 2426   0.091   2.855   4.296 -0.5517  0.1933 -0.6264
  664SOL     OW 2427   0.058   2.185   6.305  0.1197  0.1078 -0.3080
  664SOL    HW2 2428   0.106   2.231   6.236  0.8802 -0.3092 -0.0643
  664SOL    HW3 2429  -0.029   2.169   6.267  0.5424 -0.1531 -1.1750
  664SOL    MW4 2430   0.053   2.189   6.291  0.1896 -0.0514  0.0476
  665SOL     OW 2431   5.314   0.383   3.114  0.1762 -0.6894 -0.1430
  665SOL    HW2 2432   5.288   0.394   3.205 -0.6433 -0.5063 -0.3892
  665SOL    HW3 2433   5.405   0.352   3.118  0.1194 -0.7569  0.7281
  665SOL    MW4 2434   5.323   0.381   3.127  0.4513  0.3983  0.8405
  666SOL     OW 2435   2.164   5.915   3.054 -0.1027  0.3296 -0.1261
  666SOL    HW2 2436   2.168   6.003   3.016  0.5050 -0.1758 -1.2674
  666SOL    HW3 2437   2.255   5.888   3.062 -0.3035 -0.4073 -0.2766
  666SOL    MW4 2438   2.177   5.923   3.050  0.3263  0.0285 -0.4142
  667SOL     OW 2439   4.440   5.384   3.155  0.4154 -0.6654  0.0405
  667SOL    HW2 2440   4.365   5.328   3.135 -0.2934  0.4506 -0.4587
  667SOL    HW3 2441   4.493   5.382   3.075  0.9082 -1.3965  0.3684
  667SOL    MW4 2442   4.437   5.376   3.142 -0.1298 -0.1023  0.1490
  668SOL     OW 2443   3.296   0.881   2.893  0.3508  0.0480 -0.5819
  668SOL    HW2 2444   3.318   0.793   2.921  0.8540  0.8553  1.7052
  668SOL    HW3 2445   3.379   0.928   2.891  0.2312  0.2856 -2.7253
  668SOL    MW4 2446   3.310   0.876   2.896 -0.8105 -0.2492 -0.1366
  669SOL     OW 2447   5.482   5.433   4.394  0.4369  0.4317 -0.1877
  669SOL    HW2 2448   5.415   5.372   4.363  1.8135 -0.3715 -1.7461
  669SOL    HW3 2449   5.511   5.479   4.315  2.2838  0.1497  0.2791
  669SOL    MW4 2450   5.477   5.431   4.380  0.3079 -0.3933 -0.1810
  670SOL     OW 2451   4.258   0.241   1.355  0.4375  0.2971  0.1256
  670SOL    HW2 2452   4.255   0.151   1.388  1.8118  0.3947  0.6012
  670SOL    HW3 2453   4.264   0.231   1.260  2.4450 -0.2223  0.2513
  670SOL    MW4 2454   4.259   0.227   1.347  0.6237  0.5150 -0.4854
  671SOL     OW 2455   4.955   1.701   6.193 -0.4643 -0.1490  0.5675
  671SOL    HW2 2456   4.966   1.766   6.124 -0.0939 -0.2032  0.5751
  671SOL    HW3 2457   4.932   1.752   6.271 -0.1615 -0.0238  0.5769
  671SOL    MW4 2458   4.953   1.716   6.194 -0.1889 -0.0231 -0.5117
  672SOL     OW 2459   0.820   5.268   4.071  0.2812  0.4284  0.0676
  672SOL    HW2 2460   0.833   5.185   4.026  0.8054  0.1918  0.6446
  672SOL    HW3 2461   0.867   5.332   4.017 -2.0900  0.8131 -1.7073
  672SOL    MW4 2462   0.828   5.266   4.058  0.6122  0.6672 -0.2511
  673SOL     OW 2463   2.338   5.332   0.322 -0.7135 -0.1958 -0.6650
  673SOL    HW2 2464   2.385   5.299   0.246 -0.3651 -1.0103 -0.1150
  673SOL    HW3 2465   2.270   5.389   0.286 -0.2832 -0.2315 -1.5556
  673SOL    MW4 2466   2.335   5.335   0.308 -0.0475  0.4793  0.3588
  674SOL     OW 2467   3.770   2.634   2.575 -0.0943 -0.3234  0.3219
  674SOL    HW2 2468   3.693   2.579   2.558 -0.9913  0.5087  1.5728
  674SOL    HW3 2469   3.742   2.694   2.644  1.9620 -0.6256  1.5109
  674SOL    MW4 2470   3.756   2.634   2.582 -0.1579  0.0078  0.3201
  675SOL     OW 2471   5.151   1.308   1.204  0.1328  0.3921 -0.7290
  675SOL    HW2 2472   5.147   1.221   1.243 -0.6789  0.6153 -0.2975
  675SOL    HW3 2473   5.244   1.323   1.188  0.6229  0.6204  1.8874
  675SOL    MW4 2474   5.162   1.299   1.207 -0.2158  0.3287 -0.1192
  676SOL     OW 2475   0.377   4.295   3.433 -0.2146 -0.5721  0.0656
  676SOL    HW2 2476   0.420   4.288   3.348 -1.2251  0.7175 -0.5927
  676SOL    HW3 2477   0.412   4.375   3.472 -2.2281  0.7441 -0.6697
  676SOL    MW4 2478   0.387   4.305   3.427 -0.4994 -0.5499  0.3293
  677SOL     OW 2479   3.983   6.024   1.548 -0.1961 -0.1601  0.3569
  677SOL    HW2 2480   3.888   6.028   1.557 -0.0405  1.4489  2.0374
  677SOL    HW3 2481   3.999   6.021   1.454 -1.8949 -0.2345  0.0443
  677SOL    MW4 2482   3.973   6.024   1.537 -0.6618 -0.0017  0.3324
  678SOL     OW 2483   3.040   3.220   0.470  0.3896  0.3099 -0.2268
  678SOL    HW2 2484   2.969   3.197   0.410  1.8055 -0.4484 -1.6861
  678SOL    HW3 2485   2.997   3.271   0.538 -1.1925  1.9085 -2.2650
  678SOL    MW4 2486   3.025   3.224   0.471  0.0253  0.4248  0.3687
  679SOL     OW 2487   2.297   3.112   5.628  0.6739 -0.9128  0.2242
  679SOL    HW2 2488   2.302   3.023   5.592 -1.0565 -0.9308 -0.0441
  679SOL    HW3 2489   2.333   3.168   5.558 -2.7803 -0.9287 -1.8405
  679SOL    MW4 2490   2.302   3.108   5.614  0.7858 -0.2831  0.3723
  680SOL     OW 2491   2.935   2.797   2.024 -0.0689  0.7475 -0.1984
  680SOL    HW2 2492   2.901   2.868   2.078 -0.3811 -1.3328  2.5371
  680SOL    HW3 2493   2.867   2.730   2.026  1.0819 -0.4980 -0.9007
  680SOL    MW4 2494   2.921   2.798   2.031  0.1084 -0.7547  0.3001
  681SOL     OW 2495   0.962   6.178   3.416 -0.3259 -0.0938  0.6500
  681SOL    HW2 2496   0.899   6.138   3.356  0.4741  0.7224 -0.7826
  681SOL    HW3 2497   1.009   6.242   3.363  0.5852  0.4978  2.0984
  681SOL    MW4 2498   0.960   6.181   3.401  0.6247 -0.3310 -0.2310
  682SOL     OW 2499   4.738   6.262   2.989  0.2464  0.0510  0.4315
  682SOL    HW2 2500   4.821   6.218   2.975  0.6835  0.5540  1.3626
  682SOL    HW3 2501   4.717   6.245   3.081 -0.7382 -0.1665  0.1771
  682SOL    MW4 2502   4.746   6.254   3.000  0.0386 -0.2370 -0.0075
  683SOL     OW 2503   4.760   3.493   1.115  0.3029  0.1763  0.2387
  683SOL    HW2 2504   4.842   3.542   1.106  0.3257 -0.0488 -0.9474
  683SOL    HW3 2505   4.691   3.560   1.108  0.3568  0.1693 -0.4272
  683SOL    MW4 2506   4.761   3.509   1.113 -0.1179  0.6850 -0.6776
  684SOL     OW 2507   3.271   4.081   5.347  0.5388  0.0683  0.5422
  684SOL    HW2 2508   3.251   4.032   5.427  1.8506  0.2428  0.9911
  684SOL    HW3 2509   3.220   4.161   5.355 -0.2649 -0.4325  0.6226
  684SOL    MW4 2510   3.262   4.085   5.359 -0.2888 -0.0254 -0.1238
  685SOL     OW 2511   1.667   2.583   1.065 -0.3295  0.6372 -0.1960
  685SOL    HW2 2512   1.578   2.550   1.053 -0.1279  0.2784 -0.7235
  685SOL    HW3 2513   1.702   2.593   0.976  0.2122  0.6240  0.0088
  685SOL    MW4 2514   1.660   2.580   1.052 -0.3068 -0.0592  0.1580
  686SOL     OW 2515   3.012   2.886   1.317  0.4259 -0.3155 -0.4149
  686SOL    HW2 2516   2.921   2.904   1.295  1.1669  0.0613 -3.8376
  686SOL    HW3 2517   3.017   2.791   1.325 -0.1282 -0.4174 -1.1561
  686SOL    MW4 2518   3.001   2.876   1.315  0.6087  0.1596  0.1162
  687SOL     OW 2519   2.664   3.377   0.782  0.3868  0.3447  0.2165
  687SOL    HW2 2520   2.621   3.353   0.864 -1.1265 -0.3654 -0.7548
  687SOL    HW3 2521   2.593   3.399   0.723  1.4692  1.0172 -0.8773
  687SOL    MW4 2522   2.649   3.377   0.785  0.4926 -0.2108  0.3440
  688SOL     OW 2523   5.074   2.442   1.927 -0.0587  0.3681 -0.1733
  688SOL    HW2 2524   5.162   2.407   1.942 -0.5432 -0.3112  1.2812
  688SOL    HW3 2525   5.015   2.374   1.960 -1.2905 -0.4694 -3.7262
  688SOL    MW4 2526   5.078   2.429   1.933 -0.1191 -0.0015  0.7120
  689SOL     OW 2527   1.581   2.440   3.815 -0.0462 -0.2059  0.1591
  689SOL    HW2 2528   1.644   2.501   3.853 -0.7958  0.8205 -0.2043
  689SOL    HW3 2529   1.559   2.380   3.887 -1.1492  1.4808  1.2980
  689SOL    MW4 2530   1.586   2.440   3.830 -0.5474 -0.0622  0.2156
  690SOL     OW 2531   1.574   4.578   1.981  0.2845 -0.3250 -0.0163
  690SOL    HW2 2532   1.481   4.592   1.967  0.2934  0.4915  0.6604
  690SOL    HW3 2533   1.606   4.661   2.016  1.2898 -0.5573 -0.3472
  690SOL    MW4 2534   1.566   4.591   1.984 -0.0088  0.1951  0.2671
  691SOL     OW 2535   0.041   0.103   6.330  0.1970 -0.2406  0.7446
  691SOL    HW2 2536  -0.031   0.166   6.340  0.0029 -0.1758 -0.8531
  691SOL    HW3 2537   0.097   0.119   6.406 -0.4128  1.1231  0.9421
  691SOL    MW4 2538   0.039   0.113   6.341  0.0887  0.4333  0.4176
  692SOL     OW 2539   5.065   3.242   6.168 -0.2121 -0.3372  0.2590
  692SOL    HW2 2540   4.974   3.264   6.148 -0.4041 -0.3142  1.1142
  692SOL    HW3 2541   5.110   3.243   6.083 -1.4568 -2.5311 -0.4941
  692SOL    MW4 2542   5.059   3.245   6.154 -0.6235 -0.2506  0.0424
  693SOL     OW 2543   5.837   0.059   4.490 -0.0293  0.1348  0.1374
  693SOL    HW2 2544   5.848  -0.025   4.534 -1.0152 -0.2756 -0.3508
  693SOL    HW3 2545   5.808   0.036   4.402  1.5599  0.9486 -0.6309
  693SOL    MW4 2546   5.835   0.045   4.484 -0.3907  0.8913  0.0038
  694SOL     OW 2547   0.723   5.323   4.767 -0.0355  0.1730 -0.0725
  694SOL    HW2 2548   0.714   5.281   4.681  0.6763  0.9967 -0.5809
  694SOL    HW3 2549   0.723   5.251   4.829 -1.7045 -0.3775 -0.6482
  694SOL    MW4 2550   0.722   5.308   4.764  0.4395 -0.4394 -0.0627
  695SOL     OW 2551   2.682   3.333   6.052 -0.2665  0.3968 -0.5066
  695SOL    HW2 2552   2.613   3.385   6.011 -0.9430  0.0006  0.0954
  695SOL    HW3 2553   2.657   3.329   6.144  2.0804  2.6686  0.3427
  695SOL    MW4 2554   2.669   3.340   6.059 -0.3008 -0.1744  0.8309
  696SOL     OW 2555   6.363   6.237   4.018  0.0386  0.2501  0.1291
  696SOL    HW2 2556   6.409   6.281   4.089  0.5147  0.6137 -0.3989
  696SOL    HW3 2557   6.369   6.144   4.040 -1.5827  0.4521  1.6147
  696SOL    MW4 2558   6.370   6.230   4.030 -0.5522  0.1233  0.4098
  697SOL     OW 2559   1.626   0.685   2.252  0.2169 -0.3752 -0.1883
  697SOL    HW2 2560   1.620   0.778   2.229  0.6908 -0.6342 -1.4818
  697SOL    HW3 2561   1.644   0.642   2.168 -1.5823 -1.8233  0.1302
  697SOL    MW4 2562   1.628   0.692   2.238 -0.1207 -0.1346 -0.0498
  698SOL     OW 2563   3.800   1.804   0.051 -0.4914 -0.2663  0.3015
  698SOL    HW2 2564   3.888   1.842   0.060 -0.9616  1.1704 -0.7422
  698SOL    HW3 2565   3.809   1.738  -0.017 -0.4700  0.9246 -0.9144
  698SOL    MW4 2566   3.813   1.801   0.043  0.1708  0.1434  0.1401
  699SOL     OW 2567   0.707   0.104   5.655  0.1219  0.3080 -0.1952
  699SOL    HW2 2568   0.788   0.066   5.689  0.8245  1.1789 -0.8777
  699SOL    HW3 2569   0.668   0.148   5.731 -1.1078 -2.3395  0.8305
  699SOL    MW4 2570   0.712   0.105   5.670  0.8059  0.0455 -0.3440
  700SOL     OW 2571   0.874   2.790   4.873  0.0149  0.3643 -0.0502
  700SOL    HW2 2572   0.897   2.794   4.966 -1.1427 -1.0353  0.3245
  700SOL    HW3 2573   0.819   2.867   4.859  0.9495  1.0989  0.1732
  700SOL    MW4 2574   0.870   2.801   4.884  0.3022 -0.5906  0.2910
  701SOL     OW 2575   4.887   5.527   5.007 -0.3412  0.2370  0.7533
  701SOL    HW2 2576   4.930   5.594   4.954  1.0635 -0.7833  0.5439
  701SOL    HW3 2577   4.862   5.459   4.945  3.1893 -1.9612  1.4558
  701SOL    MW4 2578   4.890   5.527   4.992 -0.7837 -0.1154  0.9330
  702SOL     OW 2579   1.462   3.707   0.617 -0.1164 -0.0412 -0.1393
  702SOL    HW2 2580   1.383   3.654   0.604  0.5609 -0.7955 -1.4147
  702SOL    HW3 2581   1.501   3.713   0.530  1.0821  0.5632  0.4159
  702SOL    MW4 2582   1.457   3.700   0.604 -0.0873  0.5997  0.4140
  703SOL     OW 2583   2.284   3.277   4.156 -0.1733 -0.3380  0.0911
  703SOL    HW2 2584   2.323   3.230   4.083  0.2007 -0.2462  0.2270
  703SOL    HW3 2585   2.194   3.243   4.162 -1.0288  1.3792 -1.9351
  703SOL    MW4 2586   2.277   3.266   4.147 -0.1188 -0.2361  0.5743
  704SOL     OW 2587   2.073   3.248   3.879 -0.0432 -0.0773  0.0149
  704SOL    HW2 2588   2.077   3.191   3.803 -0.1391  1.0188 -0.8320
  704SOL    HW3 2589   1.982   3.246   3.906  0.5389 -3.1575  2.2611
  704SOL    MW4 2590   2.062   3.240   3.873  0.6614  0.2024 -0.1763
  705SOL     OW 2591   6.232   2.935   2.275 -0.1172  0.7467  0.1618
  705SOL    HW2 2592   6.188   3.020   2.285 -1.6885  0.3184 -2.2316
  705SOL    HW3 2593   6.275   2.940   2.190  1.7376 -0.0738  1.0070
  705SOL    MW4 2594   6.232   2.947   2.265  0.0058  0.5268  0.5150
  706SOL     OW 2595   4.915   2.144   3.914 -0.4835  0.2427 -0.0559
  706SOL    HW2 2596   4.877   2.060   3.889  0.6619 -0.4827  0.5426
  706SOL    HW3 2597   4.968   2.170   3.838  0.2740 -0.2868  0.2707
  706SOL    MW4 2598   4.917   2.137   3.900 -0.5282  0.0680 -0.5429
  707SOL     OW 2599   2.138   2.070   4.130  0.2130 -0.0632 -0.5447
  707SOL    HW2 2600   2.231   2.054   4.145 -0.0180 -0.7450  0.2313
  707SOL    HW3 2601   2.132   2.097   4.039  1.2591  0.7080 -0.3945
  707SOL    MW4 2602   2.149   2.072   4.120  0.1653 -0.3215  0.0750
  708SOL     OW 2603   5.745   5.926   5.962 -0.3749 -0.5280  0.4258
  708SOL    HW2 2604   5.761   6.011   5.921 -0.9141 -0.9622 -0.7416
  708SOL    HW3 2605   5.650   5.922   5.973 -0.6949 -1.9926 -1.9822
  708SOL    MW4 2606   5.735   5.936   5.958  0.4864 -0.5682  0.1179
  709SOL     OW 2607   3.350   4.608   1.036 -0.3748  0.0223 -0.3646
  709SOL    HW2 2608   3.300   4.543   1.084  0.3268  1.4329  2.5104
  709SOL    HW3 2609   3.290   4.683   1.028 -0.6027 -0.3104 -2.1032
  709SOL    MW4 2610   3.336   4.610   1.041  0.0076  0.0992  0.5909
  710SOL     OW 2611   3.975   2.304   1.599  0.4411  0.4983 -0.7855
  710SOL    HW2 2612   3.988   2.362   1.674 -0.3833  1.9946 -1.7510
  710SOL    HW3 2613   4.036   2.232   1.614 -2.2022 -1.2790  3.2396
  710SOL    MW4 2614   3.985   2.302   1.611 -0.4573 -0.3784 -0.8807
  711SOL     OW 2615   0.228   5.938   4.579  0.0009 -0.2645  0.2058
  711SOL    HW2 2616   0.226   6.029   4.550  0.3793 -0.0199  0.9037
  711SOL    HW3 2617   0.321   5.918   4.590  0.0692 -1.4209 -1.9420
  711SOL    MW4 2618   0.240   5.947   4.577  0.4096  0.0811  0.0203
  712SOL     OW 2619   1.422   6.410   3.005 -0.3203  0.3038 -0.7934
  712SOL    HW2 2620   1.347   6.431   2.949 -1.2829 -0.0533  0.3248
  712SOL    HW3 2621   1.452   6.324   2.974 -0.8452  0.1071 -0.7625
  712SOL    MW4 2622   1.416   6.401   2.993  0.3946  0.2884  0.0039
  713SOL     OW 2623   2.048   1.241   0.967  0.0851 -0.0635  0.0261
  713SOL    HW2 2624   2.084   1.184   1.035 -0.2898 -1.1568 -0.6608
  713SOL    HW3 2625   1.964   1.271   1.002 -1.7148 -3.2386 -1.1613
  713SOL    MW4 2626   2.042   1.238   0.980  0.1886 -0.7914 -0.7552
  714SOL     OW 2627   6.068   0.848   2.347  0.6794  0.5940  0.1096
  714SOL    HW2 2628   6.001   0.791   2.385 -0.4511  0.9140 -1.3611
  714SOL    HW3 2629   6.073   0.923   2.407 -0.1970  0.5165  0.2849
  714SOL    MW4 2630   6.060   0.850   2.360  0.2128  0.5175  0.4209
  715SOL     OW 2631   3.149   3.506   1.901 -0.0958 -0.2221  0.3466
  715SOL    HW2 2632   3.111   3.422   1.875 -1.3049  0.6057 -0.6317
  715SOL    HW3 2633   3.188   3.540   1.821  0.2478  0.2397  0.7049
  715SOL    MW4 2634   3.149   3.499   1.887  0.3063  0.1356  0.2961
  716SOL     OW 2635   0.557   6.293   5.625 -0.0960 -0.0373 -0.4231
  716SOL    HW2 2636   0.599   6.377   5.611 -1.1683  0.9228  1.7446
  716SOL    HW3 2637   0.482   6.312   5.681  0.3790 -2.5860  1.2505
  716SOL    MW4 2638   0.552   6.306   5.631  0.7424 -0.6486  0.3326
  717SOL     OW 2639   5.740   3.091   2.695  0.1320 -0.0143 -0.1044
  717SOL    HW2 2640   5.783   3.012   2.661 -1.0358 -0.1903 -1.2297
  717SOL    HW3 2641   5.730   3.074   2.788  0.8130 -0.7517 -0.1479
  717SOL    MW4 2642   5.745   3.078   2.703  0.0260  0.1981  0.3756
  718SOL     OW 2643   3.965   0.514   1.017  0.3679 -0.3896 -0.5136
  718SOL    HW2 2644   3.970   0.544   1.108 -0.3601  2.2937 -1.2930
  718SOL    HW3 2645   4.017   0.433   1.017  2.1144  0.5892  1.8585
  718SOL    MW4 2646   3.973   0.507   1.029  0.1105  0.3489 -0.1859
  719SOL     OW 2647   0.786   4.373   0.383  0.3217  0.4027 -0.5936
  719SOL    HW2 2648   0.851   4.365   0.453  0.9447  0.3689 -1.1660
  719SOL    HW3 2649   0.719   4.432   0.419  0.0487 -0.5150  0.4486
  719SOL    MW4 2650   0.786   4.380   0.397  0.1426  0.2255  0.0023
  720SOL     OW 2651   1.300   1.192   1.432  0.1049  0.1556  0.0599
  720SOL    HW2 2652   1.255   1.265   1.474 -1.2764 -0.0725 -0.9501
  720SOL    HW3 2653   1.324   1.225   1.345  1.1672  0.0028  0.2827
  720SOL    MW4 2654   1.297   1.206   1.426 -0.2449 -0.0759  0.2666
  721SOL     OW 2655   3.422   1.761   0.493 -0.0862 -0.1284 -0.0908
  721SOL    HW2 2656   3.498   1.820   0.491  1.2383 -1.7050  1.1852
  721SOL    HW3 2657   3.368   1.796   0.564  1.8110 -1.6373  2.2436
  721SOL    MW4 2658   3.425   1.774   0.502  0.4831 -0.5010  0.7256
  722SOL     OW 2659   5.817   1.451   1.417  0.4493  0.8632  0.1478
  722SOL    HW2 2660   5.796   1.529   1.469  2.1154  1.3988  0.0838
  722SOL    HW3 2661   5.813   1.481   1.326 -0.8498  0.3475  0.0234
  722SOL    MW4 2662   5.814   1.465   1.412 -0.1455 -0.2501  0.3398
  723SOL     OW 2663   1.504   4.393   2.475  0.1855  0.2462  0.1384
  723SOL    HW2 2664   1.506   4.458   2.405  4.3715 -0.1011 -0.2643
  723SOL    HW3 2665   1.579   4.414   2.531  0.1956 -2.7009  1.4563
  723SOL    MW4 2666   1.514   4.404   2.473 -0.1477 -0.4563  0.0390
  724SOL     OW 2667   2.922   4.047   5.985 -0.0735  0.1988  0.3211
  724SOL    HW2 2668   2.864   4.043   5.909  1.5644 -1.1335 -0.9317
  724SOL    HW3 2669   2.880   3.992   6.051 -0.1127 -0.9777 -0.6608
  724SOL    MW4 2670   2.909   4.039   5.984  0.3181 -0.2609 -0.3174
  725SOL     OW 2671   2.897   5.354   5.481  0.1394 -0.0525  0.2106
  725SOL    HW2 2672   2.904   5.299   5.403  0.8022  1.5860 -0.9396
  725SOL    HW3 2673   2.806   5.382   5.484  0.3371  0.7015 -0.5819
  725SOL    MW4 2674   2.886   5.350   5.471 -0.2258  0.1100  0.4280
  726SOL     OW 2675   3.188   0.595   0.107 -0.2828  0.1681 -0.2038
  726SOL    HW2 2676   3.201   0.674   0.054  0.9434 -1.3954 -2.3895
  726SOL    HW3 2677   3.095   0.574   0.096 -0.5703  1.1708  0.2185
  726SOL    MW4 2678   3.177   0.603   0.098 -0.0170 -0.1508  0.1934
  727SOL     OW 2679   0.695   5.101   0.481  0.2519  0.4042 -0.2939
  727SOL    HW2 2680   0.637   5.116   0.556 -0.5788  0.6432 -0.9689
  727SOL    HW3 2681   0.782   5.095   0.519  0.4394  4.4042  0.3648
  727SOL    MW4 2682   0.699   5.102   0.496 -0.1451  0.4837 -0.0696
  728SOL     OW 2683   0.776   1.760   5.423 -0.3290  0.0096  0.6071
  728SOL    HW2 2684   0.856   1.737   5.374 -0.2052  0.5185  0.5619
  728SOL    HW3 2685   0.791   1.851   5.450 -0.5840 -0.1303  1.2216
  728SOL    MW4 2686   0.789   1.769   5.420  0.0261 -0.6458 -0.8934
  729SOL     OW 2687   0.085   2.027   3.975 -0.4133  0.3914 -0.1330
  729SOL    HW2 2688   0.117   2.025   3.885  1.0152 -1.7967  0.3359
  729SOL    HW3 2689  -0.005   2.060   3.968 -0.7441 -0.7861 -2.5198
  729SOL    MW4 2690   0.077   2.031   3.962  0.4643 -0.5557  0.1044
  730SOL     OW 2691   6.374   0.673   5.064  0.2600 -0.7965  0.2229
  730SOL    HW2 2692   6.465   0.677   5.093  0.0298 -0.0940  0.8657
  730SOL    HW3 2693   6.328   0.737   5.118 -0.4031 -0.3144 -0.8709
  730SOL    MW4 2694   6.380   0.682   5.075  0.0971 -0.3341 -0.3580
  731SOL     OW 2695   2.965   3.674   4.961 -0.4962 -0.2525  0.0612
  731SOL    HW2 2696   3.010   3.646   5.042 -1.0735 -0.9088  0.1669
  731SOL    HW3 2697   3.030   3.726   4.915  0.5869 -1.6260 -0.0410
  731SOL    MW4 2698   2.980   3.677   4.966 -0.1236  0.3119  0.0816
  732SOL     OW 2699   4.837   1.502   0.404  0.8407  0.4509  0.3984
  732SOL    HW2 2700   4.866   1.584   0.365  2.1898 -0.2297 -0.0755
  732SOL    HW3 2701   4.752   1.485   0.362  0.5813  1.5432  0.4507
  732SOL    MW4 2702   4.829   1.511   0.393 -0.2731 -0.2316  0.2206
  733SOL     OW 2703   5.043   5.089   1.518 -0.5527  0.0790 -1.3312
  733SOL    HW2 2704   5.094   5.022   1.473 -0.3971 -0.7164 -0.0303
  733SOL    HW3 2705   5.109   5.150   1.552 -0.2904 -1.4484  1.1575
  733SOL    MW4 2706   5.059   5.088   1.517 -0.1080  0.5235  0.4713
  734SOL     OW 2707   2.952   3.983   0.458  0.4041 -0.3803 -0.0244
  734SOL    HW2 2708   2.983   4.073   0.448  0.7077 -0.6153 -1.2917
  734SOL    HW3 2709   3.022   3.939   0.505  1.9377 -0.8327 -2.5970
  734SOL    MW4 2710   2.965   3.989   0.463  0.0085  0.5448 -0.8335
  735SOL     OW 2711   4.907   6.193   3.996 -0.0296  0.2841  0.2033
  735SOL    HW2 2712   4.856   6.270   3.971  1.0796  0.7708 -0.6273
  735SOL    HW3 2713   4.854   6.151   4.064 -1.7869  0.4788 -0.9694
  735SOL    MW4 2714   4.893   6.197   4.001  0.4780 -0.5103  0.5145
  736SOL     OW 2715   2.725   6.132   5.353  0.0710  0.1037 -0.2083
  736SOL    HW2 2716   2.769   6.217   5.355 -0.0697  0.2473  3.2707
  736SOL    HW3 2717   2.795   6.069   5.333  0.6324  0.8332 -0.5867
  736SOL    MW4 2718   2.740   6.135   5.351 -0.3210  0.2166  0.2889
  737SOL     OW 2719   1.371   0.846   3.118  0.0969 -0.6194  0.7422
  737SOL    HW2 2720   1.411   0.792   3.186 -0.4135 -0.6572  1.0162
  737SOL    HW3 2721   1.443   0.865   3.057  0.6994 -0.0601  1.6117
  737SOL    MW4 2722   1.386   0.841   3.119  0.0502 -0.6653 -0.8484
  738SOL     OW 2723   1.639   1.130   3.699 -0.1254  0.2579  0.0307
  738SOL    HW2 2724   1.702   1.060   3.680 -1.8701 -1.4786  0.2533
  738SOL    HW3 2725   1.674   1.173   3.778  2.0671  1.0882 -1.2943
  738SOL    MW4 2726   1.652   1.126   3.707 -0.2084  0.6741 -0.0878
  739SOL     OW 2727   6.021   3.319   0.337 -0.2249  0.3097  0.4214
  739SOL    HW2 2728   6.079   3.389   0.367  0.1455 -1.0567  3.2680
  739SOL    HW3 2729   6.080   3.252   0.302 -0.0958 -0.5588  2.1866
  739SOL    MW4 2730   6.036   3.320   0.336 -0.6955  0.2460 -0.2022
  740SOL     OW 2731   1.023   0.356   1.415  0.6376  0.1686 -0.4235
  740SOL    HW2 2732   1.043   0.431   1.358  0.3668  1.0247  0.5636
  740SOL    HW3 2733   0.958   0.391   1.476  0.9955 -0.6974  0.4670
  740SOL    MW4 2734   1.017   0.371   1.416  0.7677  0.4115  0.2128
  741SOL     OW 2735   5.131   0.152   3.157  0.0835 -0.2208 -0.1552
  741SOL    HW2 2736   5.160   0.086   3.093  0.8518 -0.0232 -0.0270
  741SOL    HW3 2737   5.176   0.232   3.130 -0.3965  0.1103  0.0296
  741SOL    MW4 2738   5.141   0.154   3.145  0.5023  0.2265 -0.6052
  742SOL     OW 2739   5.599   3.848   4.081 -0.4976 -0.1041  0.2610
  742SOL    HW2 2740   5.624   3.940   4.087  0.5931 -0.4101  0.6636
  742SOL    HW3 2741   5.591   3.830   3.988 -0.2836  0.2886  0.1678
  742SOL    MW4 2742   5.601   3.857   4.070  0.5701 -0.8323 -0.1654
  743SOL     OW 2743   1.144   1.896   4.646  0.2758 -0.1304 -0.1762
  743SOL    HW2 2744   1.150   1.818   4.700  0.9177  0.3074  0.4062
  743SOL    HW3 2745   1.074   1.948   4.685 -0.6408 -0.7297 -0.9941
  743SOL    MW4 2746   1.136   1.893   4.658 -0.2872  0.1960 -0.3127
  744SOL     OW 2747   4.066   4.012   0.914  0.2590 -0.1896 -0.5831
  744SOL    HW2 2748   4.140   4.053   0.871  0.5609 -0.3244 -0.2013
  744SOL    HW3 2749   4.097   3.993   1.003 -0.3776  0.1793 -0.2716
  744SOL    MW4 2750   4.080   4.015   0.920 -0.1597 -0.2731 -0.0745
  745SOL     OW 2751   0.569   0.002   6.100 -0.4237 -0.2726  0.0452
  745SOL    HW2 2752   0.618  -0.076   6.074 -0.5507 -0.5830  0.7076
  745SOL    HW3 2753   0.575   0.002   6.196 -1.3371 -0.0644  0.1077
  745SOL    MW4 2754   0.577  -0.008   6.109 -0.3138  0.6099 -0.1851
  746SOL     OW 2755   0.602   4.549   3.061 -0.6521  0.6682  0.0119
  746SOL    HW2 2756   0.539   4.608   3.019 -0.3356  0.5156 -0.6925
  746SOL    HW3 2757   0.550   4.474   3.090 -0.7982  0.5394 -0.5759
  746SOL    MW4 2758   0.587   4.547   3.059 -0.3405  0.1432  0.1606
  747SOL     OW 2759   1.846   3.550   6.330 -0.2393  0.0655  0.7020
  747SOL    HW2 2760   1.831   3.457   6.313 -0.6117  0.4793 -1.4516
  747SOL    HW3 2761   1.759   3.589   6.332 -0.0882  0.3883  1.6870
  747SOL    MW4 2762   1.833   3.543   6.328  0.5358 -1.1272 -0.1465
  748SOL     OW 2763   3.359   5.165   5.611 -0.1114  0.2036 -0.9479
  748SOL    HW2 2764   3.290   5.230   5.599  0.6795  1.1324 -0.6177
  748SOL    HW3 2765   3.439   5.209   5.582  0.4097 -0.7193 -0.9653
  748SOL    MW4 2766   3.360   5.179   5.605 -0.4777  0.0646  0.1670
  749SOL     OW 2767   5.823   3.195   4.862  0.1475  0.1569  0.1654
  749SOL    HW2 2768   5.810   3.228   4.951 -0.2757 -1.1572  0.6068
  749SOL    HW3 2769   5.760   3.243   4.809  0.8150  1.3963  0.4407
  749SOL    MW4 2770   5.813   3.206   4.867 -0.3255 -0.0641  0.7595
  750SOL     OW 2771   1.989   5.544   0.436  0.1861  0.5636  0.2515
  750SOL    HW2 2772   2.022   5.507   0.354  0.1222  0.4831  0.2629
  750SOL    HW3 2773   2.065   5.542   0.494  0.5261  1.5676 -0.1206
  750SOL    MW4 2774   2.003   5.539   0.432 -0.7409 -0.4736  0.3441
  751SOL     OW 2775   4.115   1.241   2.690 -1.0315  0.3882 -0.3816
  751SOL    HW2 2776   4.110   1.173   2.622  1.3321  0.1064 -0.3322
  751SOL    HW3 2777   4.094   1.322   2.643 -0.7563  0.0238 -1.1624
  751SOL    MW4 2778   4.111   1.243   2.675  0.1496 -0.6264  0.0138
  752SOL     OW 2779   0.479   5.391   0.278 -0.2312 -0.2250 -0.1810
  752SOL    HW2 2780   0.465   5.470   0.226 -0.0629 -0.4247 -0.5336
  752SOL    HW3 2781   0.536   5.336   0.223 -2.0563 -1.4989 -0.8767
  752SOL    MW4 2782   0.485   5.394   0.264 -0.1697  0.2595  0.7716
  753SOL     OW 2783   4.573   3.780   6.294 -0.3261  0.2159  0.2278
  753SOL    HW2 2784   4.616   3.803   6.212 -2.3255  0.7157 -0.7206
  753SOL    HW3 2785   4.480   3.794   6.278 -1.1710 -3.1217  1.3996
  753SOL    MW4 2786   4.567   3.785   6.281  0.5486 -0.3078 -0.0069
  754SOL     OW 2787   5.278   1.511   5.750 -0.0661 -0.0479 -0.3192
  754SOL    HW2 2788   5.214   1.484   5.684 -0.3506  0.0888 -0.1029
  754SOL    HW3 2789   5.253   1.462   5.829  1.4153 -1.6688 -0.7955
  754SOL    MW4 2790   5.266   1.501   5.752 -0.8377  0.0972  0.2440
  755SOL     OW 2791   2.461   5.984   3.706  0.1562 -0.3278 -0.3694
  755SOL    HW2 2792   2.536   6.042   3.718 -0.3783  0.9599 -2.5889
  755SOL    HW3 2793   2.385   6.042   3.714 -0.4598 -1.0383 -1.0129
  755SOL    MW4 2794   2.461   6.000   3.708  0.4574  0.4729  0.0420
  756SOL     OW 2795   3.378   2.493   5.230  0.7644  0.1776  0.6986
  756SOL    HW2 2796   3.412   2.581   5.218 -0.3784  0.8938  2.3687
  756SOL    HW3 2797   3.330   2.496   5.312 -1.2214 -1.3926 -0.2957
  756SOL    MW4 2798   3.376   2.505   5.239 -0.2485  0.0277  0.1791
  757SOL     OW 2799   1.156   5.811   5.446  0.1369 -0.0098 -0.4459
  757SOL    HW2 2800   1.080   5.819   5.389 -0.4717 -0.6010  0.2619
  757SOL    HW3 2801   1.231   5.816   5.387 -0.4804 -0.6142 -1.3105
  757SOL    MW4 2802   1.156   5.812   5.431 -0.4229 -0.3629 -0.2893
  758SOL     OW 2803   1.134   2.440   1.091 -0.1797 -0.1287  0.0847
  758SOL    HW2 2804   1.113   2.405   1.177 -2.8610  1.3247  0.1244
  758SOL    HW3 2805   1.089   2.382   1.030  1.3028 -0.8630 -0.3581
  758SOL    MW4 2806   1.125   2.428   1.094 -0.0392 -0.0409  0.3612
  759SOL     OW 2807   0.067   5.961   2.632 -0.4475  0.0268 -0.2308
  759SOL    HW2 2808   0.127   5.921   2.569  0.3980 -0.9697  1.1336
  759SOL    HW3 2809   0.032   5.887   2.681 -0.6521  0.8092  0.8305
  759SOL    MW4 2810   0.071   5.946   2.630  0.1206  0.2298 -0.6053
  760SOL     OW 2811   2.864   4.198   4.763 -0.3441  0.1573 -0.1470
  760SOL    HW2 2812   2.950   4.166   4.788 -1.2814 -1.2563  1.5202
  760SOL    HW3 2813   2.867   4.207   4.668  0.7901 -2.5257 -0.4342
  760SOL    MW4 2814   2.875   4.195   4.754  0.8190 -0.0186 -0.1901
  761SOL     OW 2815   6.273   3.811   4.549 -0.1497 -0.2798 -0.0706
  761SOL    HW2 2816   6.253   3.719   4.567  1.7038 -0.1899  3.2607
  761SOL    HW3 2817   6.218   3.859   4.611  1.2723  0.6219  0.5384
  761SOL    MW4 2818   6.263   3.805   4.560  0.1506 -0.2475  0.6717
  762SOL     OW 2819   0.235   4.305   4.163 -0.0643 -0.9250 -0.1645
  762SOL    HW2 2820   0.239   4.258   4.080  2.5832 -0.3088 -0.4689
  762SOL    HW3 2821   0.198   4.391   4.140 -3.5356 -2.1941  0.1515
  762SOL    MW4 2822   0.231   4.310   4.149 -0.1927 -0.2818 -0.3868
  763SOL     OW 2823   0.806   4.977   2.509  0.2908  0.4977  0.1447
  763SOL    HW2 2824   0.884   4.942   2.466  1.4454  2.4011  0.6162
  763SOL    HW3 2825   0.741   4.906   2.501  1.4993 -0.4820 -1.7581
  763SOL    MW4 2826   0.807   4.963   2.502 -0.0028  0.5766 -0.4835
  764SOL     OW 2827   0.395   4.067   4.491  0.3461 -0.3590  0.1996
  764SOL    HW2 2828   0.462   4.034   4.551 -0.9078 -1.4511  1.0515
  764SOL    HW3 2829   0.317   4.080   4.545 -0.7190 -1.0385 -1.0974
  764SOL    MW4 2830   0.394   4.064   4.506 -0.3912 -0.2934  0.2316
  765SOL     OW 2831   0.829   0.480   4.067  0.0113  0.2742 -0.0235
  765SOL    HW2 2832   0.914   0.439   4.055 -0.1591  0.5592 -2.6073
  765SOL    HW3 2833   0.769   0.428   4.013 -0.9703  1.5751 -0.2398
  765SOL    MW4 2834   0.832   0.467   4.058  0.7518 -0.4580 -0.0148
  766SOL     OW 2835   1.337   6.247   0.998 -0.0786  0.2898  0.2159
  766SOL    HW2 2836   1.356   6.157   0.972 -0.0007  0.3427  0.0876
  766SOL    HW3 2837   1.242   6.253   1.001 -0.0777  0.0636  0.7085
  766SOL    MW4 2838   1.327   6.236   0.995  0.3791 -0.2752  0.0407
  767SOL     OW 2839   5.158   1.768   2.832 -0.0996 -1.0550  0.0606
  767SOL    HW2 2840   5.067   1.793   2.847  0.0730 -0.7419  0.6130
  767SOL    HW3 2841   5.157   1.722   2.748 -0.4596  0.6887 -0.9370
  767SOL    MW4 2842   5.146   1.765   2.823  0.3424 -0.4253  0.0714
  768SOL     OW 2843   5.712   4.628   4.031 -0.5385  0.2385 -0.3200
  768SOL    HW2 2844   5.708   4.596   4.121 -1.1639  0.9674 -0.0742
  768SOL    HW3 2845   5.628   4.605   3.992 -0.9309  1.3624 -0.1941
  768SOL    MW4 2846   5.701   4.621   4.038 -0.5498  0.1293  0.0177
  769SOL     OW 2847   0.066   1.207   4.401  0.5563  0.6187  0.3654
  769SOL    HW2 2848   0.027   1.294   4.390 -1.0134 -0.3303 -3.3438
  769SOL    HW3 2849   0.116   1.193   4.321  4.1620 -0.4514  2.5985
  769SOL    MW4 2850   0.067   1.217   4.389  0.0165 -0.4356 -0.5098
  770SOL     OW 2851   0.426   1.917   6.382 -0.1165 -0.4518 -0.1193
  770SOL    HW2 2852   0.334   1.927   6.408 -0.0152  0.0538  0.0374
  770SOL    HW3 2853   0.431   1.957   6.295  0.2265  0.6656  0.3979
  770SOL    MW4 2854   0.414   1.923   6.374  0.0663 -0.0950  0.2388
  771SOL     OW 2855   5.986   2.210   4.984 -0.4153  0.2912 -0.1523
  771SOL    HW2 2856   5.998   2.296   4.944 -0.8538 -0.0397 -1.0295
  771SOL    HW3 2857   5.898   2.212   5.021  0.6124  1.2096  2.4288
  771SOL    MW4 2858   5.976   2.222   4.983 -0.1770 -0.4565  0.8785
  772SOL     OW 2859   1.031   4.749   2.781  0.1968  0.0058 -1.0485
  772SOL    HW2 2860   0.998   4.684   2.843 -1.0289  0.2593 -1.4098
  772SOL    HW3 2861   1.121   4.764   2.807 -0.3908  0.3614  0.9104
  772SOL    MW4 2862   1.038   4.743   2.792 -0.0648  0.6879 -0.1219
  773SOL     OW 2863   1.577   6.228   5.893 -0.7423 -0.2834  0.5066
  773SOL    HW2 2864   1.597   6.218   5.986  1.3449 -0.7205  0.0432
  773SOL    HW3 2865   1.550   6.319   5.884  2.9953  1.0037  0.9293
  773SOL    MW4 2866   1.576   6.239   5.904  0.1087 -0.0452 -0.8180
  774SOL     OW 2867   1.446   3.664   1.001 -0.4406  0.0308  0.0698
  774SOL    HW2 2868   1.447   3.582   1.051 -0.1498  0.6004  1.0117
  774SOL    HW3 2869   1.532   3.703   1.017 -1.4052  1.6777  1.6060
  774SOL    MW4 2870   1.458   3.658   1.010  0.2825 -0.0737 -0.4753
  775SOL     OW 2871   4.408   0.733   0.346 -0.2049  0.2246  0.1939
  775SOL    HW2 2872   4.440   0.672   0.411 -1.4446 -0.6293  0.0405
  775SOL    HW3 2873   4.400   0.816   0.393  0.1469 -0.0626  0.7763
  775SOL    MW4 2874   4.411   0.736   0.361  0.5782 -0.3377 -0.0203
  776SOL     OW 2875   0.021   4.889   4.172 -0.1175 -0.2545 -0.1632
  776SOL    HW2 2876   0.008   4.865   4.264 -1.7396 -1.4503 -0.6476
  776SOL    HW3 2877  -0.065   4.921   4.143  0.3378  0.0070 -1.2904
  776SOL    MW4 2878   0.008   4.890   4.180  0.6470  0.4653 -0.1862
  777SOL     OW 2879   1.200   2.512   3.284  0.5975 -0.4351  0.0367
  777SOL    HW2 2880   1.109   2.482   3.290  0.9374 -1.9112 -1.5637
  777SOL    HW3 2881   1.193   2.598   3.243 -0.0956 -0.3355  0.3447
  777SOL    MW4 2882   1.187   2.520   3.279  0.1701 -0.7112 -0.0093
  778SOL     OW 2883   1.110   5.575   2.074 -0.3927  0.4319  0.3527
  778SOL    HW2 2884   1.079   5.542   1.990 -0.8794  2.2690 -0.2344
  778SOL    HW3 2885   1.147   5.661   2.054  1.8833 -0.1753  1.6291
  778SOL    MW4 2886   1.110   5.582   2.060  0.2525  0.1027 -0.0217
  779SOL     OW 2887   4.467   1.421   2.520 -0.0323 -0.4314 -0.2953
  779SOL    HW2 2888   4.504   1.475   2.450  1.5761 -0.3348  0.5952
  779SOL    HW3 2889   4.414   1.481   2.572  0.4227 -0.0686 -0.2507
  779SOL    MW4 2890   4.465   1.436   2.517 -0.1566  0.5459 -0.2365
  780SOL     OW 2891   6.129   6.299   0.923  0.6058  0.8406  0.3744
  780SOL    HW2 2892   6.218   6.331   0.938  0.7025  0.6185  0.2800
  780SOL    HW3 2893   6.117   6.229   0.987  1.3683 -0.7761 -1.1895
  780SOL    MW4 2894   6.139   6.294   0.933  0.5659 -0.2566 -0.3870
  781SOL     OW 2895   5.884   6.289   1.967  0.1333 -0.7547 -0.3647
  781SOL    HW2 2896   5.898   6.369   2.017  1.2779 -0.4922 -1.0606
  781SOL    HW3 2897   5.879   6.319   1.876 -1.5006 -1.2620 -0.4767
  781SOL    MW4 2898   5.885   6.304   1.961  0.2596 -0.2601 -0.5046
  782SOL     OW 2899   2.811   4.001   3.218 -0.2871  0.5656 -0.1004
  782SOL    HW2 2900   2.886   3.990   3.275 -0.5832 -0.0805  0.1751
  782SOL    HW3 2901   2.774   3.913   3.210 -0.5878  0.7490 -0.8157
  782SOL    MW4 2902   2.816   3.988   3.224  0.0036 -0.2668  0.3007
  783SOL     OW 2903   4.465   4.148   0.052 -0.5233  0.0741  0.0845
  783SOL    HW2 2904   4.533   4.091   0.089  0.1599  1.1654  0.5536
  783SOL    HW3 2905   4.383   4.112   0.086 -0.1279 -0.7531  0.1968
  783SOL    MW4 2906   4.463   4.135   0.062  0.1667  0.2024  0.4478
  784SOL     OW 2907   2.475   1.783   0.556 -0.2658  0.1271  0.9520
  784SOL    HW2 2908   2.566   1.792   0.582 -0.6563 -0.0612  2.4940
  784SOL    HW3 2909   2.459   1.689   0.556 -0.2999  0.1314  0.0898
  784SOL    MW4 2910   2.485   1.772   0.560 -0.2754  0.2576  0.0247
  785SOL     OW 2911   0.141   5.733   6.427  0.3268 -0.6867 -0.2347
  785SOL    HW2 2912   0.117   5.821   6.456 -1.8638 -1.2958 -0.0070
  785SOL    HW3 2913   0.131   5.678   6.505  1.0652 -1.2601 -0.5242
  785SOL    MW4 2914   0.137   5.737   6.441 -0.1778 -1.0013  0.1811
  786SOL     OW 2915   4.256   3.736   2.230  0.1236  0.4265 -0.4878
  786SOL    HW2 2916   4.292   3.824   2.239  0.1312  0.4984 -1.1483
  786SOL    HW3 2917   4.270   3.714   2.138 -1.0370  0.2524 -0.6425
  786SOL    MW4 2918   4.262   3.745   2.219 -0.0221 -0.0527  0.7436
  787SOL     OW 2919   4.340   2.600   2.078  0.6312 -0.1252  0.3914
  787SOL    HW2 2920   4.296   2.652   2.146  1.3344 -1.2010  1.6883
  787SOL    HW3 2921   4.433   2.607   2.098  0.7791 -1.3374  0.2016
  787SOL    MW4 2922   4.346   2.608   2.089  0.2396 -0.3462 -0.8130
  788SOL     OW 2923   1.895   5.307   0.594  0.6889  0.1042  0.0338
  788SOL    HW2 2924   1.891   5.380   0.532  1.5055 -0.7955 -1.1259
  788SOL    HW3 2925   1.983   5.270   0.582 -0.0786 -1.7640 -0.2551
  788SOL    MW4 2926   1.906   5.312   0.584 -0.2842  0.8410  0.0966
  789SOL     OW 2927   0.465   4.679   1.759  0.0184 -0.4004 -0.7417
  789SOL    HW2 2928   0.489   4.700   1.669  1.6898  1.0117 -0.0146
  789SOL    HW3 2929   0.395   4.741   1.781 -0.3586 -0.7162 -1.0417
  789SOL    MW4 2930   0.459   4.690   1.750  0.5660  0.3975 -0.5204
  790SOL     OW 2931   5.207   1.344   6.013  0.3665 -0.1148  0.4208
  790SOL    HW2 2932   5.278   1.282   6.028 -0.7431 -1.5060  0.1262
  790SOL    HW3 2933   5.210   1.404   6.088  1.7183 -0.2470  0.4942
  790SOL    MW4 2934   5.217   1.344   6.025  0.3869 -0.5535 -0.5067
  791SOL     OW 2935   3.456   0.011   1.279 -0.3808  0.3135  0.9665
  791SOL    HW2 2936   3.407   0.092   1.289  1.0145  1.0082  2.7638
  791SOL    HW3 2937   3.537   0.026   1.328  1.1817 -1.1475 -0.9827
  791SOL    MW4 2938   3.461   0.023   1.287  0.5135 -0.2264 -0.3725
  792SOL     OW 2939   5.179   4.202   1.831  0.2560  0.2472  0.3187
  792SOL    HW2 2940   5.154   4.116   1.864  1.8997 -0.3969  0.0264
  792SOL    HW3 2941   5.228   4.182   1.750  0.7370  1.4416  0.3010
  792SOL    MW4 2942   5.182   4.188   1.824  0.4180  0.5092 -0.0755
  793SOL     OW 2943   0.420   2.193   4.996  0.3219 -0.1591 -0.4828
  793SOL    HW2 2944   0.401   2.154   5.081  5.6632 -5.6784 -1.1334
  793SOL    HW3 2945   0.361   2.147   4.936  0.1036 -0.1468 -0.2795
  793SOL    MW4 2946   0.409   2.182   4.999  0.1542  0.3995 -0.0685
  794SOL     OW 2947   0.456   5.901   0.865  0.2315  0.2326  0.3788
  794SOL    HW2 2948   0.535   5.913   0.812 -0.0756 -0.7980 -0.3611
  794SOL    HW3 2949   0.464   5.812   0.899 -0.8641 -0.0859 -0.1656
  794SOL    MW4 2950   0.468   5.891   0.862  0.3917  0.1564 -0.2119
  795SOL     OW 2951   1.587   0.155   0.130  0.0696 -0.0639 -0.4133
  795SOL    HW2 2952   1.591   0.247   0.104 -1.4036  0.5151  1.2361
  795SOL    HW3 2953   1.586   0.157   0.226 -2.3741 -1.6061 -0.3180
  795SOL    MW4 2954   1.587   0.167   0.139  0.3616  0.2301  0.2576
  796SOL     OW 2955   0.741   5.650   1.602  0.9128  0.2044  0.5544
  796SOL    HW2 2956   0.660   5.695   1.626  0.5567  0.0178 -0.2655
  796SOL    HW3 2957   0.795   5.655   1.681 -0.2709 -0.5251  1.4461
  796SOL    MW4 2958   0.738   5.656   1.616 -0.1274 -0.0003 -0.3179
  797SOL     OW 2959   1.703   3.904   6.183  0.2118 -0.1731  1.2037
  797SOL    HW2 2960   1.778   3.865   6.139 -1.5824 -1.0051 -1.3824
  797SOL    HW3 2961   1.665   3.832   6.234  0.7083  0.0270  1.8563
  797SOL    MW4 2962   1.708   3.890   6.184 -0.2441 -0.2165  0.2319
  798SOL     OW 2963   1.910   1.817   5.734  0.4199 -0.4637 -0.1710
  798SOL    HW2 2964   1.947   1.903   5.754  3.4224 -1.6904  0.1443
  798SOL    HW3 2965   1.862   1.830   5.652 -0.9323  1.8704  0.9011
  798SOL    MW4 2966   1.909   1.830   5.726 -0.2910 -0.4782 -0.0308
  799SOL     OW 2967   5.672   3.209   5.401 -0.1927 -0.4765 -0.0635
  799SOL    HW2 2968   5.593   3.257   5.379  0.2561  1.3131  1.8903
  799SOL    HW3 2969   5.731   3.224   5.327 -0.9006  0.0538 -0.5324
  799SOL    MW4 2970   5.669   3.217   5.388  0.0998  0.1737  0.2250
  800SOL     OW 2971   4.143   3.874   2.985 -0.0716 -0.3086 -0.0934
  800SOL    HW2 2972   4.075   3.807   2.985 -0.6453  0.2613 -0.1620
  800SOL    HW3 2973   4.124   3.928   2.908  1.4572 -1.1249 -1.0718
  800SOL    MW4 2974   4.131   3.873   2.975 -0.0951 -0.1793  0.1585
  801SOL     OW 2975   0.843   3.041   3.924  0.4346 -0.0610  0.1898
  801SOL    HW2 2976   0.919   3.087   3.960 -0.7334  1.5459  0.7445
  801SOL    HW3 2977   0.845   2.955   3.966  2.3884 -0.3881 -0.4468
  801SOL    MW4 2978   0.854   3.036   3.934 -0.0111 -0.4650 -0.0631
  802SOL     OW 2979   1.285   0.102   6.129 -1.0361  0.5013  0.1888
  802SOL    HW2 2980   1.191   0.108   6.111 -1.2597 -2.8014 -0.4040
  802SOL    HW3 2981   1.298   0.012   6.159  2.1811  0.3069 -1.3322
  802SOL    MW4 2982   1.274   0.091   6.131 -0.7276  0.3829 -0.2550
  803SOL     OW 2983   4.710   3.597   1.654  0.1724  0.5956  0.5071
  803SOL    HW2 2984   4.702   3.688   1.681 -1.3528  0.5994  0.1350
  803SOL    HW3 2985   4.740   3.551   1.732  0.3915  1.3274  0.8581
  803SOL    MW4 2986   4.713   3.603   1.668  0.3638 -0.0248 -0.4469
  804SOL     OW 2987   1.747   0.967   4.462 -0.1638 -0.4266 -0.3241
  804SOL    HW2 2988   1.776   1.056   4.444 -1.2784  0.2447  0.9826
  804SOL    HW3 2989   1.665   0.958   4.414 -0.7875 -0.2230  0.6736
  804SOL    MW4 2990   1.740   0.978   4.454 -0.7630  0.1486  0.2137
  805SOL     OW 2991   0.889   2.897   6.381  0.3264 -0.0763  0.2510
  805SOL    HW2 2992   0.849   2.982   6.364  1.1575  0.4317  0.8005
  805SOL    HW3 2993   0.930   2.906   6.467 -0.9794 -1.5656  1.0825
  805SOL    MW4 2994   0.889   2.909   6.390 -0.4682  0.6732  0.3407
  806SOL     OW 2995   1.924   4.437   0.155  0.2424  0.5403  0.0306
  806SOL    HW2 2996   1.942   4.523   0.117  2.2630 -0.1605 -0.6898
  806SOL    HW3 2997   2.008   4.408   0.190 -0.0389 -1.7849 -1.0598
  806SOL    MW4 2998   1.937   4.445   0.155  0.4282 -0.2831 -0.3905
  807SOL     OW 2999   2.542   0.908   2.511 -0.3424  0.2996  0.8820
  807SOL    HW2 3000   2.606   0.878   2.576  0.7032 -3.9866 -1.7592
  807SOL    HW3 3001   2.458   0.878   2.545  0.3029 -2.8234  0.0258
  807SOL    MW4 3002   2.539   0.900   2.524  0.3128  0.3089 -0.3717
  808SOL     OW 3003   1.478   0.398   4.703  0.9611  0.3270  0.2874
  808SOL    HW2 3004   1.506   0.433   4.788  1.6674 -0.7243  0.5153
  808SOL    HW3 3005   1.491   0.471   4.642 -0.4906  1.4117  1.2196
  808SOL    MW4 3006   1.484   0.413   4.706 -0.4452 -0.2566  0.1261
  809SOL     OW 3007   0.161   1.430   5.070  0.5357 -0.1207 -0.2348
  809SOL    HW2 3008   0.227   1.486   5.031 -0.7827  1.8297  0.1898
  809SOL    HW3 3009   0.114   1.487   5.132  0.3104 -2.1749  1.6281
  809SOL    MW4 3010   0.163   1.445   5.073  0.2018 -0.1788  0.1141
  810SOL     OW 3011   3.943   3.626   1.107 -0.0723 -0.2011  0.2671
  810SOL    HW2 3012   3.960   3.673   1.026 -2.2860 -0.2487 -0.2961
  810SOL    HW3 3013   4.029   3.600   1.139  0.8676  0.1004 -1.8889
  810SOL    MW4 3014   3.956   3.629   1.101  0.3026  0.2668 -0.7250
  811SOL     OW 3015   4.563   4.638   2.072 -0.7964 -0.2507  0.5952
  811SOL    HW2 3016   4.658   4.627   2.066 -0.7084 -0.3655  1.8170
  811SOL    HW3 3017   4.535   4.562   2.124 -1.8323 -1.3167 -1.4001
  811SOL    MW4 3018   4.572   4.626   2.078  0.7756  0.0828 -0.2682
  812SOL     OW 3019   3.387   5.894   2.952 -0.3836  0.3710  0.0901
  812SOL    HW2 3020   3.402   5.917   3.044 -2.2122  1.8023  0.0799
  812SOL    HW3 3021   3.438   5.959   2.903  0.3421 -0.2027  0.0614
  812SOL    MW4 3022   3.396   5.905   2.958 -0.4284 -0.2754 -0.2551
  813SOL     OW 3023   4.211   3.965   3.831  0.3067 -0.2945 -0.2617
  813SOL    HW2 3024   4.263   4.045   3.839  1.0552 -0.7462 -0.6053
  813SOL    HW3 3025   4.126   3.995   3.797  0.1320  0.5107  0.8153
  813SOL    MW4 3026   4.206   3.980   3.828 -0.3189  0.3406 -0.3562
  814SOL     OW 3027   2.846   3.001   3.425 -0.2079 -0.8123 -0.2010
  814SOL    HW2 3028   2.881   3.070   3.368 -0.4715 -1.3625 -1.0527
  814SOL    HW3 3029   2.824   3.045   3.507 -0.3607  0.1035 -0.7303
  814SOL    MW4 3030   2.848   3.016   3.428 -0.4091 -0.3841  0.2352
  815SOL     OW 3031   4.456   4.401   1.794 -0.2235 -0.4018 -0.4221
  815SOL    HW2 3032   4.513   4.477   1.796  1.2983 -1.4136 -1.9534
  815SOL    HW3 3033   4.453   4.371   1.885  1.6272 -0.2373 -0.2600
  815SOL    MW4 3034   4.463   4.407   1.806  0.0414 -0.1187 -0.1081
  816SOL     OW 3035   4.554   6.196   0.219 -0.1564  0.2242 -0.2970
  816SOL    HW2 3036   4.610   6.129   0.180 -0.0524  0.7438 -1.0729
  816SOL    HW3 3037   4.466   6.158   0.217  0.0025 -0.1565 -0.0929
  816SOL    MW4 3038   4.550   6.182   0.214 -0.0127  0.3324  0.4174
  817SOL     OW 3039   2.447   1.929   0.305  0.3900 -0.1859 -0.0681
  817SOL    HW2 3040   2.443   1.887   0.391 -1.7935 -0.5111 -0.2767
  817SOL    HW3 3041   2.521   1.887   0.261 -0.2370 -2.1101  0.6164
  817SOL    MW4 3042   2.456   1.918   0.311 -0.6144  0.1373  1.0776
  818SOL     OW 3043   5.549   2.696   0.708  0.1102 -0.0641  0.1124
  818SOL    HW2 3044   5.522   2.647   0.631  1.1327 -0.2458 -0.1474
  818SOL    HW3 3045   5.551   2.631   0.779  0.6257 -0.2203 -0.0422
  818SOL    MW4 3046   5.546   2.681   0.707  0.0759 -0.1287  0.0398
  819SOL     OW 3047   4.921   6.365   5.429 -0.3437 -0.0899  0.1575
  819SOL    HW2 3048   4.891   6.456   5.419 -0.9554 -0.2950  0.1048
  819SOL    HW3 3049   4.925   6.331   5.339  0.7179  0.1369  0.0996
  819SOL    MW4 3050   4.918   6.373   5.416  0.3229  0.2670  0.3899
  820SOL     OW 3051   2.432   5.472   3.241 -0.7068  0.1075  0.5269
  820SOL    HW2 3052   2.340   5.479   3.267 -0.0424  0.0435  3.2435
  820SOL    HW3 3053   2.478   5.524   3.307  1.2341 -0.1550 -0.5819
  820SOL    MW4 3054   2.426   5.480   3.253 -0.6920  0.0595  0.1651
  821SOL     OW 3055   0.439   1.876   5.524  0.2973  0.2663  0.0479
  821SOL    HW2 3056   0.467   1.798   5.477 -2.3181 -1.2837  0.8445
  821SOL    HW3 3057   0.453   1.948   5.461  0.5127 -1.1689 -1.6214
  821SOL    MW4 3058   0.444   1.875   5.509 -0.1790  0.1452  0.9360
  822SOL     OW 3059   4.018   4.646   3.381 -0.1614 -0.2421  0.3054
  822SOL    HW2 3060   3.936   4.601   3.363 -0.3763 -0.5784  1.9303
  822SOL    HW3 3061   4.086   4.584   3.355 -0.4341 -0.5447  0.3104
  822SOL    MW4 3062   4.016   4.632   3.375 -0.7296 -0.2039  0.8843
  823SOL     OW 3063   4.750   3.663   5.852  0.1249 -0.6103 -0.2582
  823SOL    HW2 3064   4.742   3.665   5.756  0.2026 -2.6070 -0.3422
  823SOL    HW3 3065   4.677   3.608   5.881 -1.5060  2.0740  1.1135
  823SOL    MW4 3066   4.739   3.656   5.843  0.0579  0.3700 -0.3291
  824SOL     OW 3067   2.308   5.265   3.513 -0.1753 -0.0609 -0.4497
  824SOL    HW2 3068   2.283   5.176   3.490  0.0049 -0.0013 -0.8767
  824SOL    HW3 3069   2.282   5.318   3.438  0.2932  0.1499 -0.4674
  824SOL    MW4 3070   2.302   5.260   3.500  0.1593  0.4538 -0.1031
  825SOL     OW 3071   6.319   1.139   5.237 -0.3465  0.0339 -0.1462
  825SOL    HW2 3072   6.298   1.054   5.198  1.6476  0.5632 -2.6727
  825SOL    HW3 3073   6.234   1.180   5.254 -1.3220 -2.0100  0.1429
  825SOL    MW4 3074   6.305   1.133   5.234 -0.0184 -0.5582 -0.3485
  826SOL     OW 3075   2.996   3.046   0.672  0.0137  0.2854 -0.0423
  826SOL    HW2 3076   3.074   3.060   0.726  0.2420  0.8853 -0.5038
  826SOL    HW3 3077   3.008   3.106   0.598 -1.3595  1.0998  0.3623
  826SOL    MW4 3078   3.008   3.056   0.669 -0.6715 -0.0791  0.8090
  827SOL     OW 3079   2.606   3.673   0.921 -0.1200 -0.0447  0.2289
  827SOL    HW2 3080   2.597   3.725   0.841  0.3250  0.2549  0.3717
  827SOL    HW3 3081   2.644   3.590   0.892 -1.8743 -0.7615 -0.1718
  827SOL    MW4 3082   2.610   3.669   0.907  0.7685  0.5260 -0.3736
  828SOL     OW 3083   4.887   4.057   6.177 -0.0072 -0.0971  0.0956
  828SOL    HW2 3084   4.963   4.102   6.140 -0.8221 -0.0828 -1.6213
  828SOL    HW3 3085   4.904   3.964   6.162  0.0735 -0.1571  0.5306
  828SOL    MW4 3086   4.899   4.050   6.170 -0.1425  0.1730 -0.1760
  829SOL     OW 3087   4.379   0.524   4.277  0.7999 -0.4469 -0.0696
  829SOL    HW2 3088   4.429   0.498   4.355  2.4414 -1.3545 -1.3704
  829SOL    HW3 3089   4.443   0.567   4.221 -0.5347  0.8608 -0.6324
  829SOL    MW4 3090   4.394   0.526   4.280  0.3613 -0.0151  0.6913
  830SOL     OW 3091   6.280   5.552   5.145  0.8534 -0.3308  0.4561
  830SOL    HW2 3092   6.320   5.636   5.120 -0.4643  0.0755 -0.4150
  830SOL    HW3 3093   6.187   5.571   5.151  0.2343 -2.1619 -1.8554
  830SOL    MW4 3094   6.273   5.566   5.142  0.1236 -0.4011  0.0513
  831SOL     OW 3095   0.337   4.939   5.579  0.3477  0.2995  0.1258
  831SOL    HW2 3096   0.426   4.906   5.593  0.1650 -0.8064 -1.0949
  831SOL    HW3 3097   0.311   4.903   5.494 -1.7516 -0.5064  1.0164
  831SOL    MW4 3098   0.345   4.930   5.569  0.1940  0.2829  0.1743
  832SOL     OW 3099   5.160   0.184   4.401 -0.7161  0.9272  0.1743
  832SOL    HW2 3100   5.204   0.122   4.459 -2.4329  0.1068  0.6405
  832SOL    HW3 3101   5.095   0.227   4.456 -1.2729  1.3067 -0.7555
  832SOL    MW4 3102   5.158   0.182   4.416  0.2552 -0.2860 -0.2060
  833SOL     OW 3103   6.094   4.063   2.078 -0.1404 -0.2640  0.2795
  833SOL    HW2 3104   6.089   4.054   1.983  0.2739  4.0223 -0.3682
  833SOL    HW3 3105   6.186   4.081   2.096 -0.1245 -1.4923  1.6009
  833SOL    MW4 3106   6.105   4.064   2.068 -0.2800  0.4850  0.4578
  834SOL     OW 3107   6.165   2.026   1.099 -0.4305 -0.3368  0.4770
  834SOL    HW2 3108   6.119   2.000   1.020  0.9070 -0.3669 -0.3172
  834SOL    HW3 3109   6.123   2.107   1.127 -0.0246  0.4444 -1.0679
  834SOL    MW4 3110   6.154   2.033   1.093  0.8065 -0.2194 -0.6775
  835SOL     OW 3111   3.682   4.484   4.041  0.5381 -0.0221 -0.4846
  835SOL    HW2 3112   3.741   4.543   4.088  0.5118  0.2961 -0.8425
  835SOL    HW3 3113   3.710   4.490   3.949  0.0175  0.0605 -0.6441
  835SOL    MW4 3114   3.694   4.493   4.035 -0.3394 -0.1237  0.2321
  836SOL     OW 3115   3.006   1.017   5.134 -0.3880  0.6677  0.2626
  836SOL    HW2 3116   3.090   0.974   5.148 -0.8920 -0.1482  0.9729
  836SOL    HW3 3117   3.020   1.108   5.160  0.2368  0.5019  0.5204
  836SOL    MW4 3118   3.019   1.023   5.140 -0.2403  0.1520  0.4882
  837SOL     OW 3119   6.253   3.626   1.649 -0.3242 -0.1163 -0.0425
  837SOL    HW2 3120   6.318   3.573   1.695 -1.8203 -0.7739  1.4133
  837SOL    HW3 3121   6.249   3.588   1.561  2.7180  1.2791 -0.8975
  837SOL    MW4 3122   6.261   3.614   1.643  0.8156  0.3489 -0.3033
  838SOL     OW 3123   0.675   4.122   0.434 -0.0318  0.1470 -0.1953
  838SOL    HW2 3124   0.583   4.143   0.450 -0.2412  0.9323 -2.1314
  838SOL    HW3 3125   0.715   4.206   0.410  0.6506 -0.5458 -1.6165
  838SOL    MW4 3126   0.669   4.136   0.433  0.4226  0.4864 -0.4982
  839SOL     OW 3127   2.224   6.262   5.573 -0.3883  0.9402 -0.1230
  839SOL    HW2 3128   2.200   6.177   5.537 -0.9548  1.5722 -1.3073
  839SOL    HW3 3129   2.225   6.321   5.497  1.6121  1.6704  0.4036
  839SOL    MW4 3130   2.221   6.259   5.558  0.1904 -0.1563  0.2452
  840SOL     OW 3131   2.252   0.375   3.309  0.6827 -0.1814  0.3795
  840SOL    HW2 3132   2.318   0.433   3.269  0.3255 -0.6111 -0.8811
  840SOL    HW3 3133   2.288   0.355   3.396  0.7802  1.9651  0.8919
  840SOL    MW4 3134   2.266   0.380   3.315  0.2012  0.1925 -0.7103
  841SOL     OW 3135   5.380   4.605   2.130 -0.0475 -0.4992 -0.7002
  841SOL    HW2 3136   5.475   4.602   2.141 -0.2496 -0.8764  1.2178
  841SOL    HW3 3137   5.349   4.665   2.197 -1.2271 -0.9444 -0.8206
  841SOL    MW4 3138   5.388   4.612   2.140 -0.1302 -0.0520  0.0051
  842SOL     OW 3139   1.251   6.064   2.128 -0.0667 -0.6307 -0.5141
  842SOL    HW2 3140   1.196   6.142   2.127 -0.2687 -0.7345 -3.0056
  842SOL    HW3 3141   1.205   6.002   2.071  1.8464 -1.2764 -1.4420
  842SOL    MW4 3142   1.238   6.066   2.120  0.1543  0.4614 -0.4171
  843SOL     OW 3143   1.629   4.899   6.164 -0.1810 -0.1894 -0.4019
  843SOL    HW2 3144   1.600   4.958   6.234  0.5988  1.5832 -1.4911
  843SOL    HW3 3145   1.583   4.931   6.086  0.3186 -0.9933 -1.0351
  843SOL    MW4 3146   1.619   4.911   6.163 -0.2040  0.3462  0.1286
  844SOL     OW 3147   2.797   5.243   6.210  0.2262 -0.2197  0.2530
  844SOL    HW2 3148   2.874   5.195   6.181  0.3987  0.2686 -0.0962
  844SOL    HW3 3149   2.743   5.177   6.254  0.8650 -0.5473  0.5527
  844SOL    MW4 3150   2.800   5.228   6.212  0.7580  0.9234  0.5637
  845SOL     OW 3151   2.055   5.771   1.266 -0.2807  0.9731  0.0237
  845SOL    HW2 3152   2.041   5.742   1.176  0.4458 -0.3141  0.3054
  845SOL    HW3 3153   2.006   5.709   1.320 -0.3772  1.4872  0.5496
  845SOL    MW4 3154   2.046   5.759   1.262  0.1606  0.6501 -0.3432
  846SOL     OW 3155   1.387   6.278   3.432  0.4581  0.5764  0.5276
  846SOL    HW2 3156   1.448   6.217   3.474  0.5073 -1.0067 -1.6772
  846SOL    HW3 3157   1.335   6.224   3.373 -0.6693  2.4366 -0.2820
  846SOL    MW4 3158   1.388   6.263   3.430  0.3526 -0.7239 -0.4476
  847SOL     OW 3159   2.047   3.462   4.268 -0.0475 -0.0163 -0.1677
  847SOL    HW2 3160   1.984   3.474   4.197  0.0423 -0.4038 -0.3172
  847SOL    HW3 3161   2.021   3.525   4.335 -0.0082  0.5040 -0.6366
  847SOL    MW4 3162   2.036   3.472   4.267  0.4373 -0.1505  0.3757
  848SOL     OW 3163   1.878   6.382   1.452 -0.4263 -0.6913 -0.0495
  848SOL    HW2 3164   1.890   6.318   1.382 -1.5899 -0.4242 -0.5129
  848SOL    HW3 3165   1.784   6.382   1.469 -0.2315 -0.3765  1.1741
  848SOL    MW4 3166   1.867   6.374   1.445 -0.0509 -0.1689  0.0708
  849SOL     OW 3167   0.575   2.685   2.573 -0.5180  0.4222  0.5765
  849SOL    HW2 3168   0.488   2.712   2.604 -1.1989 -0.4382 -0.4999
  849SOL    HW3 3169   0.558   2.609   2.517  0.8923  0.5222 -0.0302
  849SOL    MW4 3170   0.561   2.679   2.570 -0.2145  0.1505 -0.3402
  850SOL     OW 3171   2.996   4.611   5.688  0.0432  0.7206 -0.0386
  850SOL    HW2 3172   2.928   4.547   5.712 -2.2971  2.6663 -1.0530
  850SOL    HW3 3173   3.046   4.623   5.769 -1.3583 -0.1631  1.0215
  850SOL    MW4 3174   2.994   4.604   5.702  0.3317  0.5130 -0.3020
  851SOL     OW 3175   4.149   6.182   2.455 -0.0347 -0.4510 -0.6685
  851SOL    HW2 3176   4.135   6.138   2.540 -0.9503  1.2850  0.1265
  851SOL    HW3 3177   4.237   6.219   2.462 -0.1253 -0.2712 -0.4474
  851SOL    MW4 3178   4.159   6.181   2.467  0.2264 -0.4800  0.1909
  852SOL     OW 3179   5.118   6.178   6.190 -0.6840 -0.1018  0.3268
  852SOL    HW2 3180   5.116   6.258   6.241 -0.8992  0.6812 -0.8597
  852SOL    HW3 3181   5.202   6.137   6.212  0.5347  1.6543 -0.7842
  852SOL    MW4 3182   5.129   6.183   6.199  0.1270 -0.0825  0.1956
  853SOL     OW 3183   3.062   5.726   4.005  0.0932 -0.2457 -0.0520
  853SOL    HW2 3184   2.988   5.781   3.979  0.7527  0.5910 -0.2094
  853SOL    HW3 3185   3.057   5.650   3.948 -0.2069  0.1603 -0.5745
  853SOL    MW4 3186   3.051   5.723   3.994  0.0074 -0.1714  0.8990
  854SOL     OW 3187   5.481   4.586   3.890  0.1132  0.2429 -0.1431
  854SOL    HW2 3188   5.463   4.528   3.816 -1.9465  1.7597 -0.9306
  854SOL    HW3 3189   5.400   4.585   3.941  1.3892 -0.5174  1.9800
  854SOL    MW4 3190   5.468   4.578   3.887 -0.1589 -0.1970 -0.0222
  855SOL     OW 3191   5.523   2.336   0.522 -0.0329  0.1030 -0.1103
  855SOL    HW2 3192   5.587   2.400   0.492 -0.4490  0.6752  0.1916
  855SOL    HW3 3193   5.441   2.386   0.529 -0.5727 -0.6836 -0.7582
  855SOL    MW4 3194   5.521   2.351   0.519  0.9240 -0.1267  0.2181
  856SOL     OW 3195   3.404   2.074   4.981  0.6335  0.9678 -0.1415
  856SOL    HW2 3196   3.342   2.002   4.997  0.0273  1.2427 -1.1447
  856SOL    HW3 3197   3.488   2.030   4.968  0.1710  0.3685 -1.2715
  856SOL    MW4 3198   3.407   2.058   4.981 -0.1608  0.1404  0.3754
  857SOL     OW 3199   0.514   4.336   5.434  0.1677  0.0814  0.4558
  857SOL    HW2 3200   0.564   4.292   5.365  2.4431  1.8828  0.8020
  857SOL    HW3 3201   0.560   4.312   5.515 -2.0383 -1.4397  1.3308
  857SOL    MW4 3202   0.527   4.327   5.436 -0.3609 -0.2855 -0.3726
  858SOL     OW 3203   4.258   5.971   0.530 -0.1336  0.0345  0.1868
  858SOL    HW2 3204   4.192   5.904   0.515  1.0565 -1.4761  1.3578
  858SOL    HW3 3205   4.250   5.991   0.623  1.7773 -1.0369  0.6235
  858SOL    MW4 3206   4.248   5.965   0.540 -0.2080  0.1953  0.1307
  859SOL     OW 3207   1.650   6.044   2.643 -0.2808 -0.3945  0.3542
  859SOL    HW2 3208   1.596   6.109   2.687  2.2945  2.5406 -0.4413
  859SOL    HW3 3209   1.645   6.068   2.550 -0.5269 -2.4134 -0.1999
  859SOL    MW4 3210   1.642   6.056   2.637  0.1556 -0.7240  0.6831
  860SOL     OW 3211   3.043   5.108   3.862  0.0077  0.1103 -0.4099
  860SOL    HW2 3212   3.007   5.105   3.773 -0.8043  0.2702 -0.0934
  860SOL    HW3 3213   3.118   5.167   3.856 -0.7222  1.0161 -0.7527
  860SOL    MW4 3214   3.048   5.115   3.850  0.2831  0.0711 -0.5995
  861SOL     OW 3215   1.720   5.315   6.195  0.0724  0.2149 -0.1337
  861SOL    HW2 3216   1.644   5.331   6.140  0.2049  0.1590 -0.3347
  861SOL    HW3 3217   1.756   5.232   6.163  0.0296  0.0758  0.1731
  861SOL    MW4 3218   1.715   5.306   6.184  0.2255 -0.0522  0.3830
  862SOL     OW 3219   1.370   6.395   0.119  0.0932 -0.0905 -0.3145
  862SOL    HW2 3220   1.339   6.364   0.033 -1.8250  1.1450 -0.1439
  862SOL    HW3 3221   1.433   6.464   0.098  1.0593 -1.0554 -0.6893
  862SOL    MW4 3222   1.374   6.400   0.105  0.6448  0.2457 -0.0078
  863SOL     OW 3223   2.524   1.309   3.407  0.0196  0.1832  0.4458
  863SOL    HW2 3224   2.509   1.243   3.474 -1.3514 -0.0757 -0.0824
  863SOL    HW3 3225   2.467   1.382   3.432 -0.4782  0.0970 -0.3832
  863SOL    MW4 3226   2.514   1.310   3.419 -0.0517 -0.0188 -0.0334
  864SOL     OW 3227   5.688   3.508   4.555  0.0064  0.3743 -0.3982
  864SOL    HW2 3228   5.668   3.443   4.622  1.2308 -0.3620 -0.7199
  864SOL    HW3 3229   5.772   3.546   4.583 -0.2926  1.2385 -0.6415
  864SOL    MW4 3230   5.697   3.505   4.567 -0.1348  0.2334 -0.3143
  865SOL     OW 3231   2.738   5.518   6.124  0.0780 -0.3215 -0.1150
  865SOL    HW2 3232   2.763   5.427   6.141  2.2420  0.1437 -0.5234
  865SOL    HW3 3233   2.763   5.565   6.204 -0.0621  0.0812 -0.3065
  865SOL    MW4 3234   2.745   5.512   6.137 -0.6560  0.0408  0.5103
  866SOL     OW 3235   3.920   4.530   6.274  0.7948 -0.0847  0.1269
  866SOL    HW2 3236   3.892   4.597   6.212 -1.9845  0.1368  1.4372
  866SOL    HW3 3237   3.943   4.455   6.220 -0.4858  0.4454 -1.2181
  866SOL    MW4 3238   3.919   4.529   6.259  0.0695 -0.0269  0.2632
  867SOL     OW 3239   4.696   2.915   3.778 -0.5138 -0.3689 -0.3063
  867SOL    HW2 3240   4.695   2.966   3.859 -1.3024 -0.1900 -0.4166
  867SOL    HW3 3241   4.743   2.835   3.800  2.1731  1.0416 -0.5569
  867SOL    MW4 3242   4.702   2.911   3.791  0.2761  0.4196 -0.5290
  868SOL     OW 3243   1.139   2.078   4.321  0.8300  0.1310  0.6883
  868SOL    HW2 3244   1.184   2.019   4.381 -0.5211 -0.3852  1.2233
  868SOL    HW3 3245   1.047   2.053   4.326  0.5185  0.8718 -0.7054
  868SOL    MW4 3246   1.133   2.067   4.329 -0.0265  0.3016  0.7190
  869SOL     OW 3247   4.037   0.799   2.701 -0.1076 -0.0388 -0.4761
  869SOL    HW2 3248   4.027   0.725   2.641 -0.3962 -0.9607  0.6814
  869SOL    HW3 3249   3.950   0.840   2.702 -0.3801 -0.6012  0.0255
  869SOL    MW4 3250   4.024   0.794   2.693  0.4984 -0.0190  0.0319
  870SOL     OW 3251   4.224   1.103   0.159 -0.5802  0.5816 -0.3009
  870SOL    HW2 3252   4.302   1.113   0.105 -0.1701 -1.5981 -0.1901
  870SOL    HW3 3253   4.153   1.140   0.105  0.3895  1.9356 -0.6897
  870SOL    MW4 3254   4.225   1.109   0.145  0.0189  0.0618 -0.0668
  871SOL     OW 3255   2.671   2.395   1.781 -0.0672 -0.3850 -0.2644
  871SOL    HW2 3256   2.609   2.325   1.759 -1.3737  0.6417  0.0291
  871SOL    HW3 3257   2.646   2.467   1.724  1.2638 -0.1275 -0.5546
  871SOL    MW4 3258   2.659   2.395   1.771 -0.1159 -0.0610 -0.1264
  872SOL     OW 3259   6.355   2.385   0.635  0.2538  0.4233  0.2910
  872SOL    HW2 3260   6.261   2.402   0.621  0.0204 -0.6840  0.4063
  872SOL    HW3 3261   6.363   2.374   0.730  0.4296  0.1814  0.2501
  872SOL    MW4 3262   6.343   2.386   0.646 -0.2327 -0.2144 -0.0401
  873SOL     OW 3263   5.608   6.101   1.995 -0.3652 -0.2172  0.0257
  873SOL    HW2 3264   5.636   6.029   2.052 -1.0822 -0.4020  0.1605
  873SOL    HW3 3265   5.613   6.178   2.051  1.0790 -0.0333 -0.3203
  873SOL    MW4 3266   5.612   6.101   2.010  0.4399 -0.2841 -0.6094
  874SOL     OW 3267   0.962   3.773   1.674 -0.2138  0.4995  0.5928
  874SOL    HW2 3268   0.904   3.710   1.631 -0.7425  1.1764  0.2947
  874SOL    HW3 3269   0.958   3.751   1.767  1.0651 -1.0905  0.3190
  874SOL    MW4 3270   0.954   3.762   1.680  0.1950  0.2247 -0.3322
  875SOL     OW 3271   3.492   3.826   5.245  0.3751  0.0180 -0.2603
  875SOL    HW2 3272   3.520   3.888   5.178  0.7416 -0.7058 -0.7980
  875SOL    HW3 3273   3.465   3.880   5.319  1.3113  0.7901 -0.4645
  875SOL    MW4 3274   3.492   3.841   5.246 -0.7382  0.3618  0.1037
  876SOL     OW 3275   5.113   6.160   4.378  0.7809  0.2532  0.7048
  876SOL    HW2 3276   5.175   6.186   4.445  0.7447 -0.1998  0.9132
  876SOL    HW3 3277   5.084   6.243   4.339  1.4536  0.4647  0.6572
  876SOL    MW4 3278   5.117   6.174   4.381  0.1031  0.5208  0.4298
  877SOL     OW 3279   0.252   4.194   3.906  0.6123  0.4633  0.5222
  877SOL    HW2 3280   0.279   4.104   3.928 -0.4001 -0.5088 -1.7992
  877SOL    HW3 3281   0.158   4.187   3.891  0.5353  1.9156  0.2324
  877SOL    MW4 3282   0.243   4.181   3.907 -0.4325 -0.3072  0.3514
  878SOL     OW 3283   0.769   5.976   1.757  0.0139  0.1273 -0.4504
  878SOL    HW2 3284   0.826   5.973   1.681  0.0676  0.6251 -0.4283
  878SOL    HW3 3285   0.795   6.055   1.804 -1.5203  1.0567 -1.0949
  878SOL    MW4 3286   0.780   5.986   1.753  0.4614  0.1157  0.4392
  879SOL     OW 3287   3.253   4.279   0.225  0.1566  0.1450 -0.0394
  879SOL    HW2 3288   3.317   4.221   0.183  0.1163 -0.2500  0.4388
  879SOL    HW3 3289   3.184   4.290   0.160  0.9299  0.9597 -0.7467
  879SOL    MW4 3290   3.252   4.273   0.211  0.0274 -0.2330  0.3209
  880SOL     OW 3291   5.601   2.924   1.781 -0.0418  0.2682 -0.2107
  880SOL    HW2 3292   5.577   2.866   1.709  0.7869 -0.7724  0.3078
  880SOL    HW3 3293   5.600   2.868   1.858  0.1433  1.1070  0.4181
  880SOL    MW4 3294   5.598   2.909   1.781  0.6526 -0.1268 -0.0286
  881SOL     OW 3295   3.205   3.631   1.638 -0.7043  0.3010 -0.7520
  881SOL    HW2 3296   3.297   3.610   1.620 -1.0299 -2.1242  0.0310
  881SOL    HW3 3297   3.156   3.567   1.588 -2.0356  1.7653 -1.4082
  881SOL    MW4 3298   3.211   3.620   1.629 -0.2183  0.2196 -0.1557
  882SOL     OW 3299   3.643   5.128   5.085  0.9043 -0.0334  0.7074
  882SOL    HW2 3300   3.628   5.194   5.153  0.9682  1.0159 -0.2796
  882SOL    HW3 3301   3.576   5.145   5.019  2.3287  0.5595 -0.6585
  882SOL    MW4 3302   3.632   5.139   5.085  0.6807 -0.5913 -0.8688
  883SOL     OW 3303   5.852   3.496   0.694 -0.4138  0.0381 -0.3696
  883SOL    HW2 3304   5.904   3.416   0.704 -0.6741 -0.0952 -0.0250
  883SOL    HW3 3305   5.761   3.465   0.696 -0.5157  0.3420 -0.2709
  883SOL    MW4 3306   5.847   3.481   0.696 -0.0091 -0.5285  0.5971
  884SOL     OW 3307   2.029   3.346   0.124 -0.4438 -0.3778 -0.5764
  884SOL    HW2 3308   2.112   3.298   0.114  0.4067  0.9536 -0.2428
  884SOL    HW3 3309   1.979   3.323   0.046  0.6589 -0.4558 -1.2907
  884SOL    MW4 3310   2.034   3.337   0.112 -0.2296  0.0363 -0.4516
  885SOL     OW 3311   3.395   3.693   3.030 -0.2968  0.5755 -0.0557
  885SOL    HW2 3312   3.456   3.762   3.003 -1.1588  0.7297 -1.7259
  885SOL    HW3 3313   3.329   3.691   2.961 -1.6467 -0.2699  1.2010
  885SOL    MW4 3314   3.395   3.702   3.017 -0.5470  0.0698 -0.4060
  886SOL     OW 3315   1.294   6.380   4.952  0.7170 -0.2853 -0.2344
  886SOL    HW2 3316   1.283   6.305   4.894 -0.2948 -0.4747  0.1796
  886SOL    HW3 3317   1.345   6.443   4.900  2.4266 -1.6112 -0.2402
  886SOL    MW4 3318   1.299   6.379   4.937 -0.3614  0.6338  0.3338
  887SOL     OW 3319   0.590   5.631   4.745 -0.0217  0.4009  0.1407
  887SOL    HW2 3320   0.554   5.715   4.716 -0.5284  0.1613  0.0712
  887SOL    HW3 3321   0.618   5.588   4.664 -0.5126  0.1585  0.0979
  887SOL    MW4 3322   0.589   5.637   4.730  0.5545  0.1643 -0.4436
  888SOL     OW 3323   0.072   3.268   1.839  0.5846  0.2072 -0.1071
  888SOL    HW2 3324   0.152   3.217   1.825  0.8389  0.5295  0.1752
  888SOL    HW3 3325   0.001   3.209   1.813  0.9157 -0.0580 -0.4163
  888SOL    MW4 3326   0.073   3.254   1.834  0.2684  0.4204 -0.3118
  889SOL     OW 3327   0.641   4.494   3.998 -0.1045 -0.1181 -0.2830
  889SOL    HW2 3328   0.593   4.555   4.054  0.5981  0.7122 -0.5615
  889SOL    HW3 3329   0.652   4.541   3.915  0.3275 -0.6789 -0.5497
  889SOL    MW4 3330   0.636   4.508   3.995 -0.5309  0.4474 -0.1774
  890SOL     OW 3331   0.725   1.792   3.109 -0.4810 -0.9013 -0.0745
  890SOL    HW2 3332   0.798   1.748   3.153  0.8782  1.0763 -0.2182
  890SOL    HW3 3333   0.654   1.791   3.174  0.9288  0.4426  1.6248
  890SOL    MW4 3334   0.726   1.786   3.124 -0.0398  0.1246  0.1310
  891SOL     OW 3335   5.967   1.837   1.474 -0.5666  0.0098 -0.1944
  891SOL    HW2 3336   6.048   1.822   1.522 -1.0057  0.8715  0.8542
  891SOL    HW3 3337   5.989   1.820   1.382  0.0972 -2.4412  0.3503
  891SOL    MW4 3338   5.980   1.833   1.468 -0.4137 -0.7563  0.4508
  892SOL     OW 3339   3.528   2.135   6.350  0.7079 -0.0813  0.3327
  892SOL    HW2 3340   3.474   2.144   6.429  1.1514  0.9565  0.5321
  892SOL    HW3 3341   3.503   2.050   6.314 -0.9343  0.2752  0.5171
  892SOL    MW4 3342   3.517   2.125   6.356 -0.2101 -0.0296  0.1477
  893SOL     OW 3343   5.252   4.914   3.384  0.7334  0.6569 -0.4209
  893SOL    HW2 3344   5.278   4.913   3.292 -1.2019 -0.2511 -1.0044
  893SOL    HW3 3345   5.157   4.905   3.382  0.7815 -1.0493  1.7072
  893SOL    MW4 3346   5.243   4.912   3.372  0.5596  0.0013  0.0352
  894SOL     OW 3347   5.545   1.137   0.918  0.1350 -0.3567 -0.0082
  894SOL    HW2 3348   5.566   1.081   0.842 -0.1724 -0.1636 -0.2390
  894SOL    HW3 3349   5.450   1.147   0.914 -0.1011 -1.6759  1.3414
  894SOL    MW4 3350   5.536   1.131   0.907  0.3930 -0.3020  0.4466
  895SOL     OW 3351   1.917   2.999   6.306  0.1537 -0.1420  0.2260
  895SOL    HW2 3352   1.991   3.004   6.367  0.7604 -0.5859 -0.4403
  895SOL    HW3 3353   1.857   2.936   6.346  1.0737 -1.3059 -0.1333
  895SOL    MW4 3354   1.919   2.991   6.319  0.5686  0.2141 -0.5221
  896SOL     OW 3355   4.891   1.069   5.351  0.5716  0.0585  0.2984
  896SOL    HW2 3356   4.844   1.091   5.271  0.0968  1.3285  0.9167
  896SOL    HW3 3357   4.983   1.088   5.331  0.5994 -0.6237 -0.2743
  896SOL    MW4 3358   4.897   1.074   5.338  0.3648  0.5091 -0.1599
  897SOL     OW 3359   1.352   4.016   5.441  0.2962  0.0833 -0.3319
  897SOL    HW2 3360   1.407   4.055   5.509  0.0596 -1.4526  0.7898
  897SOL    HW3 3361   1.268   4.000   5.484 -0.0862 -0.2771 -1.1882
  897SOL    MW4 3362   1.348   4.019   5.455 -0.3964 -0.0098 -0.0879
  898SOL     OW 3363   1.452   5.205   4.265 -0.4249 -0.3932  0.0674
  898SOL    HW2 3364   1.385   5.267   4.237  0.4290 -0.1655 -1.6071
  898SOL    HW3 3365   1.408   5.151   4.331 -2.0884  0.0817 -0.5925
  898SOL    MW4 3366   1.437   5.206   4.270  0.4789 -0.1608  0.1447
  899SOL     OW 3367   0.624   4.286   5.702  0.3474  0.4573  0.9195
  899SOL    HW2 3368   0.717   4.308   5.708  0.6523 -0.6975  0.7474
  899SOL    HW3 3369   0.590   4.297   5.790  1.0116 -0.5534  1.3291
  899SOL    MW4 3370   0.632   4.290   5.714 -0.1579  0.3511 -0.0864
  900SOL     OW 3371   4.555   1.747   0.567  0.5317  0.7801 -0.5647
  900SOL    HW2 3372   4.471   1.731   0.523  0.5395  0.0884 -0.3398
  900SOL    HW3 3373   4.531   1.775   0.656  0.5455 -0.5437 -0.1336
  900SOL    MW4 3374   4.541   1.749   0.573  0.2684 -0.1097  0.3324
  901SOL     OW 3375   4.528   6.086   2.695  0.2280  0.1433  0.3190
  901SOL    HW2 3376   4.538   6.055   2.785 -0.7943 -1.1430  0.0153
  901SOL    HW3 3377   4.616   6.078   2.657  0.4142 -0.4406  0.8547
  901SOL    MW4 3378   4.541   6.081   2.702 -0.6416 -0.4898  0.1135
  902SOL     OW 3379   3.786   3.131   4.107 -0.1296  0.1338 -0.4337
  902SOL    HW2 3380   3.774   3.212   4.058 -0.3433  1.1835  1.2775
  902SOL    HW3 3381   3.704   3.118   4.153  0.3255 -0.4002  0.2477
  902SOL    MW4 3382   3.774   3.140   4.106  0.4909 -0.6753  0.1756
  903SOL     OW 3383   1.777   4.763   2.394  0.5669 -0.1202  0.4277
  903SOL    HW2 3384   1.814   4.849   2.375  1.0970 -0.9460 -2.9012
  903SOL    HW3 3385   1.853   4.710   2.417  0.9144 -0.6304 -1.6595
  903SOL    MW4 3386   1.792   4.767   2.394  0.4930 -0.5998  0.2142
  904SOL     OW 3387   2.646   4.293   5.108 -0.2365 -0.1816  0.3844
  904SOL    HW2 3388   2.627   4.314   5.199 -0.4138 -0.3056  0.3788
  904SOL    HW3 3389   2.641   4.197   5.104  2.5877 -0.4194  0.8522
  904SOL    MW4 3390   2.643   4.283   5.119 -0.6338  0.2179  0.3528
  905SOL     OW 3391   6.298   1.901   3.520 -0.4774  0.0255 -0.5626
  905SOL    HW2 3392   6.269   1.867   3.605 -0.2116 -0.3399 -0.6192
  905SOL    HW3 3393   6.384   1.939   3.538  2.0177 -4.4990 -1.6058
  905SOL    MW4 3394   6.306   1.902   3.534 -0.0741 -0.0237 -0.2105
  906SOL     OW 3395   0.386   0.916   5.667 -0.1123 -0.1579 -0.0540
  906SOL    HW2 3396   0.377   0.962   5.584 -0.6604 -0.7925 -0.3582
  906SOL    HW3 3397   0.415   0.828   5.643 -0.1182 -0.2987  0.4375
  906SOL    MW4 3398   0.389   0.911   5.653  0.5490  0.4753  0.5607
  907SOL     OW 3399   5.071   4.685   5.306 -0.2104 -0.1111  0.2332
  907SOL    HW2 3400   5.162   4.665   5.282 -1.0853 -2.0309 -1.8414
  907SOL    HW3 3401   5.047   4.618   5.370 -0.0498  0.7049  1.1731
  907SOL    MW4 3402   5.080   4.673   5.311  0.2684  0.2574 -0.1445
  908SOL     OW 3403   0.420   0.445   1.227 -0.8999  0.2198 -0.0030
  908SOL    HW2 3404   0.497   0.484   1.268  0.8506 -0.5102 -2.3839
  908SOL    HW3 3405   0.401   0.501   1.152 -0.1257 -1.7445 -1.7883
  908SOL    MW4 3406   0.428   0.457   1.223  0.2775  0.4412  0.0266
  909SOL     OW 3407   5.045   1.322   2.769  0.1377  0.0101  0.3790
  909SOL    HW2 3408   4.962   1.362   2.743  0.8796  1.4961  0.1600
  909SOL    HW3 3409   5.044   1.322   2.865 -0.1793 -0.1473  0.3763
  909SOL    MW4 3410   5.034   1.327   2.778  0.1403 -0.1921 -0.0188
  910SOL     OW 3411   2.738   0.774   1.830  0.0177 -0.2250 -0.8156
  910SOL    HW2 3412   2.813   0.777   1.889 -2.6101 -0.6280  2.8352
  910SOL    HW3 3413   2.701   0.863   1.833 -1.6932 -0.9167  0.4859
  910SOL    MW4 3414   2.743   0.786   1.838 -0.3218 -0.0001  0.3219
  911SOL     OW 3415   4.039   5.377   5.266  0.3794  0.0037 -0.1890
  911SOL    HW2 3416   4.018   5.471   5.270 -0.7611 -0.2378 -0.0691
  911SOL    HW3 3417   4.112   5.366   5.326  0.4700  0.8075 -0.1381
  911SOL    MW4 3418   4.046   5.388   5.274  0.2954  0.4602 -0.3975
  912SOL     OW 3419   0.296   1.018   2.869  0.2479 -0.2939  0.2740
  912SOL    HW2 3420   0.228   1.036   2.934 -0.8359  0.9910 -1.1234
  912SOL    HW3 3421   0.360   1.089   2.882  0.7584 -0.8569  0.8570
  912SOL    MW4 3422   0.295   1.030   2.879  0.3677  0.1620  0.0535
  913SOL     OW 3423   5.213   1.141   3.675  0.3057 -0.0873 -0.3129
  913SOL    HW2 3424   5.231   1.120   3.583  0.1076  0.6516 -0.5279
  913SOL    HW3 3425   5.260   1.223   3.691 -0.8119  0.5578 -0.1809
  913SOL    MW4 3426   5.221   1.149   3.665  0.2735 -0.4221 -0.2560
  914SOL     OW 3427   4.558   4.878   4.926 -0.3203  0.3398 -0.2036
  914SOL    HW2 3428   4.510   4.799   4.952 -1.5451  0.9535 -0.5467
  914SOL    HW3 3429   4.541   4.887   4.832 -0.6376  1.3188 -0.0584
  914SOL    MW4 3430   4.550   4.869   4.917 -0.0204 -0.0003 -0.6176
  915SOL     OW 3431   5.352   6.245   4.518 -0.4909 -0.5980 -0.2627
  915SOL    HW2 3432   5.306   6.288   4.591  1.7609 -0.6627  1.3163
  915SOL    HW3 3433   5.381   6.316   4.463 -2.2382 -0.5479 -1.2023
  915SOL    MW4 3434   5.349   6.260   4.521 -0.0604 -0.3449  0.1672
  916SOL     OW 3435   2.908   0.376   4.387 -0.0955  0.6939  0.2610
  916SOL    HW2 3436   2.906   0.469   4.364  0.5943  1.0085  1.3778
  916SOL    HW3 3437   2.827   0.340   4.351 -0.5002  1.7802  0.0555
  916SOL    MW4 3438   2.897   0.384   4.379 -0.2490  0.3099 -0.5515
  917SOL     OW 3439   4.308   1.638   0.498  0.5883 -0.0434  0.3308
  917SOL    HW2 3440   4.327   1.582   0.573 -0.8141  0.6329  1.2428
  917SOL    HW3 3441   4.234   1.596   0.455  0.9542 -0.0620 -0.2910
  917SOL    MW4 3442   4.301   1.625   0.502  0.0358  0.3544 -0.0441
  918SOL     OW 3443   0.347   0.563   4.384 -0.1038  0.2553  0.0782
  918SOL    HW2 3444   0.264   0.610   4.375  0.3705  1.3508  1.1670
  918SOL    HW3 3445   0.338   0.487   4.327 -2.1434 -0.0227  0.6916
  918SOL    MW4 3446   0.335   0.559   4.375  0.5180 -0.4306 -0.3195
  919SOL     OW 3447   1.726   3.743   0.526 -0.3783  0.2899 -0.6194
  919SOL    HW2 3448   1.719   3.826   0.481  0.3258  0.1886 -0.9306
  919SOL    HW3 3449   1.667   3.751   0.602 -1.8185  0.3452 -1.6950
  919SOL    MW4 3450   1.717   3.755   0.530  0.2474 -0.2362 -0.1883
  920SOL     OW 3451   6.259   1.558   4.989  0.4380 -0.0847 -0.2452
  920SOL    HW2 3452   6.259   1.652   4.971  2.2096  0.1364  0.6817
  920SOL    HW3 3453   6.349   1.530   4.969  0.2742 -1.3221  0.6682
  920SOL    MW4 3454   6.271   1.567   4.984 -0.7337 -0.2047 -0.2199
  921SOL     OW 3455   0.279   5.615   5.969  0.2108  0.3352  0.4530
  921SOL    HW2 3456   0.273   5.628   5.875 -0.8689 -0.8551  0.3282
  921SOL    HW3 3457   0.262   5.701   6.007  3.4242  1.5052 -0.4266
  921SOL    MW4 3458   0.276   5.628   5.962  0.0058 -0.4019  0.2742
  922SOL     OW 3459   4.785   5.162   0.852  0.9331  0.5002 -0.7154
  922SOL    HW2 3460   4.728   5.232   0.883  0.9982  0.8799 -1.4258
  922SOL    HW3 3461   4.751   5.083   0.894 -0.3764  0.6532 -1.4271
  922SOL    MW4 3462   4.773   5.161   0.862 -0.0376  0.1357  0.1786
  923SOL     OW 3463   0.563   4.079   1.863  0.1475  0.4138  0.0294
  923SOL    HW2 3464   0.510   4.045   1.791 -1.3833  0.4293  1.0936
  923SOL    HW3 3465   0.504   4.079   1.939  1.3038  1.6150  0.9966
  923SOL    MW4 3466   0.548   4.075   1.864 -0.3913  0.1187 -0.4169
  924SOL     OW 3467   0.219   6.368   1.941  0.4215 -0.6314 -0.8681
  924SOL    HW2 3468   0.150   6.302   1.946  0.4329 -0.5925  0.0155
  924SOL    HW3 3469   0.288   6.334   1.998 -0.0738  0.6916  0.6230
  924SOL    MW4 3470   0.219   6.355   1.949  0.0722 -0.3039  0.1753
  925SOL     OW 3471   4.887   0.352   3.398 -1.0120 -0.0040 -0.3044
  925SOL    HW2 3472   4.975   0.356   3.362 -0.6103 -0.2978  0.6200
  925SOL    HW3 3473   4.849   0.273   3.359 -1.0263  0.3421 -1.0194
  925SOL    MW4 3474   4.894   0.342   3.388 -0.4471  0.1622  0.0564
  926SOL     OW 3475   4.366   4.511   1.382  0.2509  0.5700 -0.0874
  926SOL    HW2 3476   4.450   4.505   1.428  0.5145  0.4853 -0.5758
  926SOL    HW3 3477   4.322   4.585   1.424  0.3794  0.3335  0.4740
  926SOL    MW4 3478   4.371   4.520   1.393  0.1888  0.1763  0.0945
  927SOL     OW 3479   5.904   6.131   1.097  0.1321  0.2589 -0.8054
  927SOL    HW2 3480   5.862   6.069   1.038 -1.9129 -2.2315  2.8486
  927SOL    HW3 3481   5.993   6.098   1.108 -0.4316 -1.1700 -0.2110
  927SOL    MW4 3482   5.910   6.119   1.091 -0.5124 -0.2159  0.1468
  928SOL     OW 3483   5.498   5.902   2.988 -0.4907  0.2836  0.5593
  928SOL    HW2 3484   5.566   5.968   2.972 -2.2075  1.6670 -1.6605
  928SOL    HW3 3485   5.466   5.922   3.075 -1.1149  2.6376 -0.1371
  928SOL    MW4 3486   5.503   5.913   2.997 -0.5468 -0.6631 -0.0190
  929SOL     OW 3487   3.926   0.643   4.102  0.6123 -0.0544  0.2295
  929SOL    HW2 3488   3.870   0.698   4.157  1.6903  1.0483  0.2539
  929SOL    HW3 3489   3.979   0.592   4.164  0.8253  0.1434  0.2103
  929SOL    MW4 3490   3.926   0.643   4.117 -0.7561 -0.0631  0.4027
  930SOL     OW 3491   0.148   3.533   4.866 -0.1220  0.1226 -0.0870
  930SOL    HW2 3492   0.172   3.585   4.789  1.2177 -2.2102 -1.3639
  930SOL    HW3 3493   0.053   3.530   4.863 -0.2552  2.3269 -0.0196
  930SOL    MW4 3494   0.139   3.540   4.855 -0.0064  0.0076 -0.1968
  931SOL     OW 3495   0.405   4.215   0.035  0.4622 -0.5986 -0.3902
  931SOL    HW2 3496   0.453   4.270   0.097 -2.2114  0.7813  0.6379
  931SOL    HW3 3497   0.398   4.269  -0.044  0.1249 -0.5607 -0.3352
  931SOL    MW4 3498   0.410   4.230   0.032  0.8721  0.0445 -0.5543
  932SOL     OW 3499   2.864   3.655   1.608  0.3777 -0.2292 -0.1232
  932SOL    HW2 3500   2.932   3.600   1.571  1.9674  1.1273  0.6705
  932SOL    HW3 3501   2.832   3.607   1.684  2.9490  0.6148  1.5949
  932SOL    MW4 3502   2.869   3.642   1.613  0.4424 -0.2017  1.0580
  933SOL     OW 3503   5.483   2.358   4.138 -0.1354 -0.5530  0.4630
  933SOL    HW2 3504   5.514   2.283   4.086  1.4834  0.4001 -0.0351
  933SOL    HW3 3505   5.507   2.336   4.228  0.7361 -0.4753  0.2643
  933SOL    MW4 3506   5.491   2.345   4.143 -0.5035  0.0025 -0.2822
  934SOL     OW 3507   0.036   0.033   4.196 -0.1710  0.5163 -0.1938
  934SOL    HW2 3508   0.070   0.061   4.110 -0.8337 -1.0735 -1.0180
  934SOL    HW3 3509  -0.055   0.061   4.195  0.5607  3.2958  1.3397
  934SOL    MW4 3510   0.028   0.041   4.184 -0.6098 -0.0479  0.0781
  935SOL     OW 3511   3.778   1.747   3.709  0.1127  0.4942  0.1989
  935SOL    HW2 3512   3.766   1.653   3.723 -0.0066  0.6317  1.1188
  935SOL    HW3 3513   3.693   1.778   3.677  1.0207 -0.2030 -3.1736
  935SOL    MW4 3514   3.765   1.739   3.707  0.5249 -0.1886  0.6944
  936SOL     OW 3515   3.485   2.757   4.349  0.0707  0.0138 -0.1863
  936SOL    HW2 3516   3.488   2.782   4.441  3.1198  0.6317 -0.3452
  936SOL    HW3 3517   3.483   2.662   4.349 -1.4207  0.0154  0.4558
  936SOL    MW4 3518   3.485   2.748   4.361  0.0793  0.2468  0.5167
  937SOL     OW 3519   1.969   2.319   4.768 -0.3481 -0.3772 -0.1033
  937SOL    HW2 3520   1.932   2.329   4.856  0.3362 -1.2860  0.3156
  937SOL    HW3 3521   2.004   2.405   4.746 -1.9327  0.2812 -0.1658
  937SOL    MW4 3522   1.969   2.332   4.777  0.3193 -0.3868  0.1138
  938SOL     OW 3523   0.113   0.480   4.758  0.2443 -0.0235  0.3159
  938SOL    HW2 3524   0.089   0.398   4.715  0.5998  0.1656 -0.2389
  938SOL    HW3 3525   0.037   0.500   4.813 -0.2478 -0.2140 -0.2875
  938SOL    MW4 3526   0.099   0.472   4.760 -0.4593  0.2955  0.1977
  939SOL     OW 3527   3.890   1.154   2.860  0.3878  0.1163 -0.9193
  939SOL    HW2 3528   3.980   1.169   2.831  1.0062  0.0098  0.8172
  939SOL    HW3 3529   3.838   1.218   2.812  1.3954  0.2460 -1.8848
  939SOL    MW4 3530   3.895   1.164   2.850  0.2505  0.4170  0.0674
  940SOL     OW 3531   6.388   5.525   3.302  0.1373 -0.3980 -0.1326
  940SOL    HW2 3532   6.438   5.577   3.240 -2.1345  3.3104  0.8020
  940SOL    HW3 3533   6.454   5.478   3.354  2.3150  0.7124 -1.7771
  940SOL    MW4 3534   6.403   5.526   3.301  0.1117 -0.1789  0.2866
  941SOL     OW 3535   0.031   3.988   4.416  0.2306  0.4040  0.6570
  941SOL    HW2 3536  -0.003   4.041   4.344 -0.5978 -0.8633  0.0855
  941SOL    HW3 3537  -0.046   3.946   4.454  0.9259 -0.9570  0.6231
  941SOL    MW4 3538   0.017   3.990   4.411 -0.3293 -0.0655  0.4923
  942SOL     OW 3539   0.842   4.387   3.547  0.2519  0.1812  0.0498
  942SOL    HW2 3540   0.870   4.440   3.472  0.1113  0.0332 -0.1052
  942SOL    HW3 3541   0.805   4.451   3.608  1.8538  0.5371  0.7110
  942SOL    MW4 3542   0.841   4.403   3.545 -0.1300 -0.3389 -0.4087
  943SOL     OW 3543   1.913   4.808   0.481 -0.0321  0.7123 -0.3129
  943SOL    HW2 3544   1.852   4.834   0.551 -0.3692  1.8172 -0.9859
  943SOL    HW3 3545   1.913   4.712   0.484 -1.8424  0.6630 -0.2943
  943SOL    MW4 3546   1.905   4.799   0.491  0.0214  0.5652 -0.0718
  944SOL     OW 3547   5.174   2.752   1.549 -0.3885 -0.1680 -0.3620
  944SOL    HW2 3548   5.145   2.819   1.611  1.6448 -0.1773  0.6507
  944SOL    HW3 3549   5.267   2.740   1.567 -0.0138 -1.0924 -2.5779
  944SOL    MW4 3550   5.182   2.759   1.559 -0.3289  0.0645 -0.1003
  945SOL     OW 3551   1.404   5.756   5.306  0.8524  0.5909 -0.0163
  945SOL    HW2 3552   1.380   5.668   5.275  0.2921  0.2150  1.3779
  945SOL    HW3 3553   1.457   5.739   5.384  0.3341  1.4940  0.5437
  945SOL    MW4 3554   1.408   5.742   5.312 -0.2726  0.1372 -0.1213
  946SOL     OW 3555   0.157   2.289   6.044  0.2716 -0.0922 -0.3484
  946SOL    HW2 3556   0.140   2.351   5.974 -2.3726 -1.6298 -1.2166
  946SOL    HW3 3557   0.241   2.316   6.080  0.6173  2.1694 -2.5645
  946SOL    MW4 3558   0.166   2.300   6.039  0.2187  0.6400 -0.7439
  947SOL     OW 3559   4.621   4.660   0.793 -0.6900  0.3219  0.3683
  947SOL    HW2 3560   4.679   4.724   0.836 -0.5565 -1.0670  2.3722
  947SOL    HW3 3561   4.671   4.630   0.717 -0.9823  2.9368 -0.9800
  947SOL    MW4 3562   4.636   4.665   0.789  0.0835 -0.9064  1.3307
  948SOL     OW 3563   6.035   5.028   4.535  0.0763 -0.0594 -0.2309
  948SOL    HW2 3564   5.987   5.050   4.455  1.3531 -0.6826 -1.2046
  948SOL    HW3 3565   5.976   5.054   4.606 -1.1946  0.2808 -1.3617
  948SOL    MW4 3566   6.021   5.035   4.534 -0.4814  0.3897 -0.1301
  949SOL     OW 3567   1.678   2.648   1.647 -0.0144 -0.1600  0.6706
  949SOL    HW2 3568   1.599   2.607   1.611  0.5753 -1.8203  1.1477
  949SOL    HW3 3569   1.728   2.675   1.570 -0.1675 -0.8783  0.3057
  949SOL    MW4 3570   1.674   2.646   1.632  0.2144  0.1312  0.0740
  950SOL     OW 3571   3.309   2.095   0.417 -0.2042  0.3816 -0.3501
  950SOL    HW2 3572   3.365   2.139   0.481  0.5525  0.0955 -0.8045
  950SOL    HW3 3573   3.221   2.127   0.436  0.1925  1.3021 -0.0061
  950SOL    MW4 3574   3.305   2.105   0.428  0.6725  0.4749 -0.0359
  951SOL     OW 3575   6.404   1.010   5.597  0.3197 -0.3334 -0.1091
  951SOL    HW2 3576   6.371   0.929   5.557 -1.5921 -0.2294  1.1299
  951SOL    HW3 3577   6.325   1.060   5.619  1.3686  0.7695  1.3599
  951SOL    MW4 3578   6.389   1.006   5.595  0.4998 -0.0993 -0.2853
  952SOL     OW 3579   5.606   0.210   2.112 -0.6473  0.1557  0.1859
  952SOL    HW2 3580   5.555   0.260   2.175  0.8797  1.1686  0.6753
  952SOL    HW3 3581   5.609   0.265   2.033  1.5657  1.2354  0.9348
  952SOL    MW4 3582   5.600   0.224   2.110  0.2183  0.6194  0.1412
  953SOL     OW 3583   1.567   0.073   1.118 -0.5287  0.4705  0.1296
  953SOL    HW2 3584   1.497   0.044   1.176 -0.2477 -1.1945 -0.3029
  953SOL    HW3 3585   1.523   0.126   1.051 -1.4504 -0.7767 -0.2896
  953SOL    MW4 3586   1.552   0.076   1.117 -0.4554  0.4539  0.0330
  954SOL     OW 3587   3.324   3.481   1.387  0.1097  0.4062  0.7115
  954SOL    HW2 3588   3.284   3.565   1.366 -1.0860  0.2591  2.1945
  954SOL    HW3 3589   3.268   3.416   1.343 -0.4652  0.2792  1.5979
  954SOL    MW4 3590   3.311   3.483   1.379 -0.6175 -0.3788  0.1196
  955SOL     OW 3591   5.038   2.365   0.114  0.5413 -0.2305 -0.4277
  955SOL    HW2 3592   4.991   2.341   0.034 -0.0568 -1.2693  0.2191
  955SOL    HW3 3593   5.125   2.325   0.104  1.6628  2.3543 -1.9825
  955SOL    MW4 3594   5.043   2.356   0.102  0.4051  0.0658  0.5762
  956SOL     OW 3595   1.417   3.483   6.398  0.1318  0.3818 -0.3061
  956SOL    HW2 3596   1.336   3.513   6.439  0.3413 -1.6251  1.7936
  956SOL    HW3 3597   1.391   3.406   6.347  0.6198 -0.0356  0.0623
  956SOL    MW4 3598   1.403   3.477   6.397  0.1739 -1.0026 -0.1835
  957SOL     OW 3599   5.613   3.841   3.290 -0.5002  0.4047  0.2879
  957SOL    HW2 3600   5.700   3.880   3.299 -0.9476  1.2853  0.9267
  957SOL    HW3 3601   5.564   3.905   3.240 -0.6033 -0.4041 -0.6798
  957SOL    MW4 3602   5.618   3.854   3.284  0.2889  0.2779  0.0446
  958SOL     OW 3603   0.991   5.456   0.292  0.0942 -0.2549 -0.0088
  958SOL    HW2 3604   0.902   5.490   0.302 -0.1802 -1.0293  0.2556
  958SOL    HW3 3605   1.026   5.455   0.382  1.0960  1.9083 -0.3074
  958SOL    MW4 3606   0.984   5.461   0.305 -0.2566  0.2792 -0.2536
  959SOL     OW 3607   3.269   6.303   2.379  0.0135  0.0478  0.2454
  959SOL    HW2 3608   3.265   6.332   2.287  0.8928 -2.6243 -0.7239
  959SOL    HW3 3609   3.318   6.221   2.376  0.3272  0.0333  3.1924
  959SOL    MW4 3610   3.275   6.296   2.366  0.2099 -0.0876 -0.1638
  960SOL     OW 3611   1.263   0.149   3.716  0.0260  0.4218  0.0122
  960SOL    HW2 3612   1.245   0.101   3.635 -0.2148 -0.1389  0.3920
  960SOL    HW3 3613   1.324   0.092   3.764 -0.8132  0.1550  0.7831
  960SOL    MW4 3614   1.269   0.135   3.712 -0.3323 -0.1134 -0.1467
  961SOL     OW 3615   2.372   5.420   0.973 -0.5691 -0.9130 -0.2839
  961SOL    HW2 3616   2.353   5.387   1.061 -1.8526 -1.6512 -0.8017
  961SOL    HW3 3617   2.346   5.511   0.975 -2.3850 -1.4000 -0.3989
  961SOL    MW4 3618   2.366   5.427   0.985 -0.3974 -0.2634  0.2484
  962SOL     OW 3619   3.753   4.549   1.021  0.2065 -0.1397  0.2571
  962SOL    HW2 3620   3.729   4.547   0.929  4.2742  0.7167 -1.0336
  962SOL    HW3 3621   3.692   4.610   1.061 -0.5483  0.8620 -2.2687
  962SOL    MW4 3622   3.742   4.557   1.014  0.4775 -0.0706 -0.0945
  963SOL     OW 3623   3.488   1.765   3.123 -0.8171 -0.6053 -0.4239
  963SOL    HW2 3624   3.396   1.753   3.142 -0.8820 -0.5827 -0.7181
  963SOL    HW3 3625   3.501   1.860   3.124 -0.2404 -0.6273  2.2119
  963SOL    MW4 3626   3.478   1.776   3.126 -0.5141 -0.1610  0.5264
  964SOL     OW 3627   3.279   5.618   6.421 -0.2770  0.2042  0.0657
  964SOL    HW2 3628   3.255   5.615   6.514 -2.2067  2.4114 -0.2449
  964SOL    HW3 3629   3.341   5.691   6.415  1.9137 -1.5871 -0.0621
  964SOL    MW4 3630   3.284   5.628   6.432 -0.1583 -0.1992  0.6164
  965SOL     OW 3631   5.406   6.020   5.361  0.1624  0.3878 -0.2094
  965SOL    HW2 3632   5.322   6.062   5.378  0.5275  0.6785  1.0034
  965SOL    HW3 3633   5.468   6.093   5.356  0.3993  0.1541 -0.8181
  965SOL    MW4 3634   5.403   6.035   5.362 -0.3262 -0.0499 -0.1864
  966SOL     OW 3635   4.058   5.231   5.661  0.1840 -0.7757 -0.3429
  966SOL    HW2 3636   4.123   5.180   5.709  1.9547  1.1740 -0.5020
  966SOL    HW3 3637   4.110   5.283   5.599 -1.4285  1.4247  0.0284
  966SOL    MW4 3638   4.074   5.232   5.659  0.4348  0.1587 -0.2583
  967SOL     OW 3639   0.723   6.412   5.219  0.3944 -0.0321  0.4693
  967SOL    HW2 3640   0.639   6.400   5.176 -0.3677 -0.0973  1.9220
  967SOL    HW3 3641   0.752   6.499   5.192 -0.0982 -0.0368 -0.0845
  967SOL    MW4 3642   0.716   6.422   5.210  0.4180 -0.1487  0.1615
  968SOL     OW 3643   5.938   4.258   1.906 -0.4734 -0.5009  0.0818
  968SOL    HW2 3644   5.970   4.184   1.854 -2.4556 -1.8490  0.6282
  968SOL    HW3 3645   5.982   4.248   1.990 -1.5196 -1.7767  0.5230
  968SOL    MW4 3646   5.948   4.247   1.910 -0.0129 -0.3938 -0.2572
  969SOL     OW 3647   2.656   4.165   5.437 -0.3757  1.0412  0.1599
  969SOL    HW2 3648   2.697   4.235   5.487 -1.2875  1.1508  0.7782
  969SOL    HW3 3649   2.576   4.145   5.484  0.1885 -0.9096  0.4096
  969SOL    MW4 3650   2.651   4.172   5.449 -0.3388 -1.0235  0.0710
  970SOL     OW 3651   6.156   4.901   2.950  0.3460 -0.2971  0.0997
  970SOL    HW2 3652   6.155   4.854   2.866 -0.6068 -1.6099  0.8005
  970SOL    HW3 3653   6.216   4.850   3.005 -0.7383 -0.7635  0.8858
  970SOL    MW4 3654   6.164   4.888   2.946  0.2668  0.2099 -0.3236
  971SOL     OW 3655   3.172   0.232   6.232 -0.1762 -0.0168 -0.6358
  971SOL    HW2 3656   3.126   0.295   6.177  0.7751  0.8057 -0.5256
  971SOL    HW3 3657   3.122   0.151   6.224 -0.2315  0.1624 -2.4853
  971SOL    MW4 3658   3.160   0.230   6.224  0.1857  0.3386  0.5027
  972SOL     OW 3659   5.040   5.016   4.627  0.3858 -0.1794  0.9661
  972SOL    HW2 3660   5.097   4.991   4.700  1.7333 -0.4592 -0.1260
  972SOL    HW3 3661   5.070   5.104   4.603 -0.2144  0.0123  0.9149
  972SOL    MW4 3662   5.052   5.024   4.633 -0.4065 -0.0327  0.4463
  973SOL     OW 3663   5.182   1.482   0.298  0.0763 -0.0321 -0.2006
  973SOL    HW2 3664   5.130   1.434   0.362  0.1831  2.9728  2.3870
  973SOL    HW3 3665   5.158   1.444   0.214 -0.9759 -3.4207  1.4346
  973SOL    MW4 3666   5.172   1.471   0.295 -0.1336  0.2867 -0.6017
  974SOL     OW 3667   3.650   1.231   6.346  0.0046 -0.0641  0.7100
  974SOL    HW2 3668   3.708   1.163   6.380 -0.5302 -0.6502  0.4616
  974SOL    HW3 3669   3.621   1.278   6.424 -1.8401 -1.8982  1.2055
  974SOL    MW4 3670   3.654   1.228   6.361 -0.1979 -0.3799  0.1864
  975SOL     OW 3671   4.986   2.497   2.932  0.0249  0.3630 -0.0564
  975SOL    HW2 3672   4.962   2.409   2.903 -1.7216 -0.1518  2.6493
  975SOL    HW3 3673   5.063   2.484   2.987  0.7297  0.7769 -0.9162
  975SOL    MW4 3674   4.993   2.484   2.935  0.1616 -0.0241  0.4179
  976SOL     OW 3675   4.834   2.340   4.636  0.1062 -0.3270 -0.6220
  976SOL    HW2 3676   4.765   2.355   4.571 -0.0081  0.9468 -0.2301
  976SOL    HW3 3677   4.787   2.306   4.713  0.0804 -0.6472 -0.7778
  976SOL    MW4 3678   4.818   2.338   4.638  0.2222  0.4782  0.1648
  977SOL     OW 3679   4.587   0.597   5.025  0.2972  0.2769 -0.1953
  977SOL    HW2 3680   4.592   0.506   5.057  0.4608  0.1124 -0.6794
  977SOL    HW3 3681   4.567   0.588   4.932 -0.0057  0.7505 -0.1747
  977SOL    MW4 3682   4.585   0.584   5.017 -0.2606 -0.3334  0.0532
  978SOL     OW 3683   0.293   1.792   0.813 -0.4248  0.2446  0.1125
  978SOL    HW2 3684   0.267   1.772   0.723 -1.8628 -0.3662  0.6341
  978SOL    HW3 3685   0.211   1.804   0.860  0.2918  0.2608  1.4149
  978SOL    MW4 3686   0.279   1.791   0.807 -0.0850 -0.0944  0.3695
  979SOL     OW 3687   3.758   1.101   5.759  0.4158  0.2390 -0.0367
  979SOL    HW2 3688   3.773   1.157   5.683  0.6509 -0.6333 -0.6559
  979SOL    HW3 3689   3.698   1.150   5.814 -2.4406 -0.4319 -2.3187
  979SOL    MW4 3690   3.752   1.115   5.756 -0.8581  0.0265  0.0337
  980SOL     OW 3691   1.388   1.901   3.934 -0.4049  0.0527 -0.1832
  980SOL    HW2 3692   1.465   1.846   3.945 -0.2379  0.1546 -0.8300
  980SOL    HW3 3693   1.333   1.854   3.872 -1.1772 -0.3409  0.7678
  980SOL    MW4 3694   1.391   1.887   3.928  0.1397  0.3958  0.2678
  981SOL     OW 3695   4.368   6.233   4.210 -0.4227  0.0653 -0.8215
  981SOL    HW2 3696   4.325   6.286   4.277 -0.2564  1.9523 -2.1257
  981SOL    HW3 3697   4.297   6.193   4.160 -0.5816  0.1281 -0.6452
  981SOL    MW4 3698   4.353   6.235   4.212 -0.1251  0.3997  0.2702
  982SOL     OW 3699   1.413   4.836   5.552  0.0110 -0.2637  0.8064
  982SOL    HW2 3700   1.430   4.742   5.559  0.4721 -0.1011  2.2528
  982SOL    HW3 3701   1.319   4.845   5.568 -0.1619 -0.5211 -0.0090
  982SOL    MW4 3702   1.403   4.825   5.555 -0.3583  0.4392 -0.4602
  983SOL     OW 3703   3.074   0.622   2.493  0.0808  0.3273 -0.4948
  983SOL    HW2 3704   2.996   0.655   2.449  0.2760  0.4495 -0.7571
  983SOL    HW3 3705   3.095   0.689   2.558 -0.8458 -0.3749  0.5571
  983SOL    MW4 3706   3.067   0.635   2.496  0.3505  0.5059 -0.5852
  984SOL     OW 3707   1.233   2.473   6.142 -0.3821 -0.2362  0.1337
  984SOL    HW2 3708   1.155   2.525   6.123  0.0560  0.0153 -1.1193
  984SOL    HW3 3709   1.200   2.388   6.170 -1.1130 -0.3173 -0.9242
  984SOL    MW4 3710   1.218   2.469   6.143 -0.1759  0.9510  0.1238
  985SOL     OW 3711   3.431   4.220   4.993 -0.7884 -0.3513 -0.5079
  985SOL    HW2 3712   3.469   4.133   4.979 -0.5996 -0.4850  0.7133
  985SOL    HW3 3713   3.482   4.278   4.937 -0.0995 -0.8442 -0.4126
  985SOL    MW4 3714   3.443   4.216   4.984  0.2976 -0.4146  0.3881
  986SOL     OW 3715   4.644   5.250   1.358 -0.5235 -0.4413  0.4074
  986SOL    HW2 3716   4.678   5.335   1.329 -0.1047 -0.7480 -0.0199
  986SOL    HW3 3717   4.675   5.241   1.448 -1.9982  0.6120  1.0787
  986SOL    MW4 3718   4.652   5.260   1.366 -0.0046 -0.0859  0.2652
  987SOL     OW 3719   1.720   0.936   5.773 -0.4569  0.0031 -0.3902
  987SOL    HW2 3720   1.792   0.941   5.836 -0.6904  1.3636 -0.2150
  987SOL    HW3 3721   1.641   0.929   5.827 -0.5973  0.4284 -0.5357
  987SOL    MW4 3722   1.719   0.936   5.788  0.5899 -0.2527 -0.1743
  988SOL     OW 3723   0.674   3.209   0.172 -0.1560  0.0608 -0.0065
  988SOL    HW2 3724   0.611   3.276   0.143 -0.5373 -0.4319 -0.3373
  988SOL    HW3 3725   0.720   3.183   0.092  0.7653  0.6992  0.2933
  988SOL    MW4 3726   0.672   3.215   0.157 -0.1240  0.0232 -0.3231
  989SOL     OW 3727   1.588   0.748   2.521  0.4874  0.0195 -0.8123
  989SOL    HW2 3728   1.642   0.702   2.586  0.8469  0.6956 -0.6280
  989SOL    HW3 3729   1.607   0.702   2.439  1.8213  0.6173 -0.8685
  989SOL    MW4 3730   1.598   0.736   2.519 -0.4748 -0.2103  0.2790
  990SOL     OW 3731   0.776   0.182   4.535 -0.3642  0.2577 -0.5815
  990SOL    HW2 3732   0.755   0.211   4.624 -0.6209  1.4090 -1.0007
  990SOL    HW3 3733   0.789   0.263   4.486  2.0791 -0.3489 -1.0720
  990SOL    MW4 3734   0.775   0.197   4.540  0.8461  0.0217  0.3740
  991SOL     OW 3735   0.375   5.875   4.215 -0.2707 -0.0115 -0.6674
  991SOL    HW2 3736   0.444   5.884   4.280 -0.5088 -0.0460 -0.4103
  991SOL    HW3 3737   0.325   5.957   4.219 -0.1314  0.0914 -0.9860
  991SOL    MW4 3738   0.377   5.887   4.224  0.0543 -0.3133  0.2444
  992SOL     OW 3739   1.351   2.388   4.492 -0.1303 -0.4767  0.0865
  992SOL    HW2 3740   1.300   2.307   4.495 -0.0832 -0.4752  0.9481
  992SOL    HW3 3741   1.285   2.458   4.486 -0.1757 -0.5575 -0.4402
  992SOL    MW4 3742   1.335   2.387   4.491 -0.0009  0.2244 -0.2100
  993SOL     OW 3743   6.041   2.950   2.744  0.5205  0.4872 -0.3228
  993SOL    HW2 3744   5.993   2.936   2.826 -0.9448 -0.5658 -1.3287
  993SOL    HW3 3745   6.109   3.013   2.768 -1.2138  1.9119  1.2287
  993SOL    MW4 3746   6.043   2.957   2.758  0.0126  0.2982  0.0616
  994SOL     OW 3747   0.718   2.118   6.039 -0.1473  0.3248  0.6343
  994SOL    HW2 3748   0.630   2.083   6.047 -0.3509  0.3136 -1.1853
  994SOL    HW3 3749   0.774   2.041   6.031 -0.3035  0.3262 -0.7978
  994SOL    MW4 3750   0.714   2.103   6.039 -0.5660 -0.5394  0.1474
  995SOL     OW 3751   1.889   1.556   3.728  0.3986 -0.0569  0.4517
  995SOL    HW2 3752   1.812   1.582   3.779 -0.3566 -0.1022 -0.6337
  995SOL    HW3 3753   1.922   1.478   3.773 -0.5228 -0.3690  0.6097
  995SOL    MW4 3754   1.883   1.549   3.741 -0.0859 -0.0483 -0.2145
  996SOL     OW 3755   3.490   3.287   5.830 -0.1783  0.2260 -0.0983
  996SOL    HW2 3756   3.438   3.341   5.890 -0.0649 -0.3958  0.5697
  996SOL    HW3 3757   3.580   3.315   5.845 -0.1333 -0.0465  0.1459
  996SOL    MW4 3758   3.495   3.298   5.840 -0.2202  0.2828 -0.2121
  997SOL     OW 3759   3.448   2.752   1.537 -0.0064  0.1333  0.8168
  997SOL    HW2 3760   3.489   2.794   1.462 -1.5389  1.1269  0.4831
  997SOL    HW3 3761   3.502   2.675   1.555 -0.0760 -0.6183 -1.8361
  997SOL    MW4 3762   3.461   2.747   1.530 -0.1687 -0.2952 -0.0915
  998SOL     OW 3763   2.633   3.910   5.133  0.0133 -0.2161 -0.6276
  998SOL    HW2 3764   2.715   3.917   5.181  0.1372 -0.7016 -0.7594
  998SOL    HW3 3765   2.653   3.944   5.045 -0.3049  1.0014 -0.2471
  998SOL    MW4 3766   2.646   3.915   5.128  0.1309  0.2925 -0.9417
  999SOL     OW 3767   0.512   3.589   1.946  0.2318 -0.4574  1.2556
  999SOL    HW2 3768   0.473   3.648   1.880  2.0734  2.0481  2.2346
  999SOL    HW3 3769   0.502   3.636   2.029  2.6156 -1.0282  1.9484
  999SOL    MW4 3770   0.506   3.603   1.948  0.7273  0.3740  0.1518
 1000SOL     OW 3771   0.753   0.266   5.155 -0.0440  0.6455 -0.0529
 1000SOL    HW2 3772   0.842   0.263   5.189 -0.0845 -0.8967  0.0141
 1000SOL    HW3 3773   0.747   0.350   5.110  1.5582  0.6294 -0.3648
 1000SOL    MW4 3774   0.764   0.277   5.154 -0.0675  0.4108  0.0100
 1001SOL     OW 3775   1.314   5.346   1.106 -0.0469  0.0782  0.0098
 1001SOL    HW2 3776   1.387   5.286   1.124  0.2218  0.2982 -0.3432
 1001SOL    HW3 3777   1.272   5.310   1.028  0.0145  0.2536 -0.1056
 1001SOL    MW4 3778   1.318   5.333   1.098  0.0976 -0.0502  0.5598
 1002SOL     OW 3779   6.141   3.724   2.174  0.3004 -0.2189  0.0226
 1002SOL    HW2 3780   6.185   3.642   2.153 -0.0460 -1.0893  2.3838
 1002SOL    HW3 3781   6.067   3.728   2.114  2.0054 -0.0463 -2.2099
 1002SOL    MW4 3782   6.137   3.714   2.163 -0.3775  0.0953  0.0062
 1003SOL     OW 3783   0.787   5.308   0.714  0.6908  0.0753 -0.2375
 1003SOL    HW2 3784   0.866   5.352   0.744  1.4048 -0.3022 -1.4972
 1003SOL    HW3 3785   0.804   5.215   0.730 -0.3808  0.1197  1.4341
 1003SOL    MW4 3786   0.800   5.301   0.720  0.6944  0.1919  0.1008
 1004SOL     OW 3787   0.605   3.676   4.799 -0.0930  0.6226 -0.0019
 1004SOL    HW2 3788   0.560   3.727   4.867  1.4610  1.3625  0.5117
 1004SOL    HW3 3789   0.606   3.587   4.833  1.6444  1.1687  1.5368
 1004SOL    MW4 3790   0.599   3.671   4.812  0.5581  0.9214 -0.0531
 1005SOL     OW 3791   1.599   0.713   5.668  0.1181  0.1757 -0.0379
 1005SOL    HW2 3792   1.648   0.777   5.720  1.6868  0.0988 -1.3272
 1005SOL    HW3 3793   1.660   0.640   5.658 -1.3750 -1.2552  0.7834
 1005SOL    MW4 3794   1.614   0.712   5.674  0.4212 -0.2607 -0.1165
 1006SOL     OW 3795   2.472   4.394   4.619 -0.3078 -0.4135 -0.0673
 1006SOL    HW2 3796   2.381   4.396   4.588  0.2004  2.4393 -1.7001
 1006SOL    HW3 3797   2.477   4.465   4.683  1.0165  0.2702 -0.8897
 1006SOL    MW4 3798   2.461   4.404   4.623  0.1316 -0.1711  0.0703
 1007SOL     OW 3799   5.448   1.940   1.587  0.7119  0.0742 -0.4285
 1007SOL    HW2 3800   5.409   1.853   1.593  0.7115  0.1269  0.4254
 1007SOL    HW3 3801   5.434   1.966   1.496  2.1496 -1.4848 -1.1533
 1007SOL    MW4 3802   5.441   1.932   1.576  0.1496  0.5888  0.7997
 1008SOL     OW 3803   3.630   6.318   1.040  0.5482 -0.0819 -0.5957
 1008SOL    HW2 3804   3.559   6.350   1.096  2.4493  1.6487  1.0482
 1008SOL    HW3 3805   3.613   6.225   1.030 -0.6399 -0.2283  1.8515
 1008SOL    MW4 3806   3.619   6.310   1.046 -0.3977 -0.1118 -0.0778
 1009SOL     OW 3807   3.544   2.208   5.216 -0.3571 -0.1319  0.3914
 1009SOL    HW2 3808   3.584   2.295   5.215 -0.7482  0.0489  0.0044
 1009SOL    HW3 3809   3.464   2.219   5.165  0.1235 -0.9796 -0.5678
 1009SOL    MW4 3810   3.539   2.221   5.209  0.1818 -0.3575  0.7093
 1010SOL     OW 3811   3.522   1.847   5.384  0.2699  0.5198 -0.2517
 1010SOL    HW2 3812   3.605   1.854   5.430  1.3444  2.0984 -2.2808
 1010SOL    HW3 3813   3.534   1.772   5.324 -0.2262  0.0133  0.2667
 1010SOL    MW4 3814   3.535   1.838   5.382  0.4270  0.0182 -0.5627
 1011SOL     OW 3815   4.852   2.709   0.862  0.0093  0.4624 -0.1912
 1011SOL    HW2 3816   4.901   2.679   0.938 -0.9828 -1.3244 -0.2131
 1011SOL    HW3 3817   4.869   2.643   0.795 -0.9319  0.8197 -0.7913
 1011SOL    MW4 3818   4.861   2.697   0.863 -0.2721 -0.2012 -0.5615
 1012SOL     OW 3819   3.332   4.516   5.895  0.0006  0.2245 -0.0365
 1012SOL    HW2 3820   3.414   4.476   5.924  0.4393  1.6910  0.8714
 1012SOL    HW3 3821   3.345   4.610   5.910 -2.6535  0.3462  2.3906
 1012SOL    MW4 3822   3.345   4.523   5.901  0.2442  0.6467  0.1013
 1013SOL     OW 3823   0.927   2.556   4.749  0.3684  0.0578  0.1098
 1013SOL    HW2 3824   0.835   2.548   4.723  0.1686  1.8306  0.1576
 1013SOL    HW3 3825   0.928   2.631   4.809  2.0557  0.9518 -0.9777
 1013SOL    MW4 3826   0.915   2.565   4.754  1.0914  0.2750 -0.2633
 1014SOL     OW 3827   0.935   3.669   1.136  0.6889  0.4110 -0.6654
 1014SOL    HW2 3828   1.020   3.659   1.178  0.1051  0.5891  0.5810
 1014SOL    HW3 3829   0.953   3.650   1.044  1.8275 -0.8404 -0.2251
 1014SOL    MW4 3830   0.949   3.665   1.129 -0.0547  0.5198 -0.2288
 1015SOL     OW 3831   3.419   3.675   3.958  0.5399  0.2252 -0.3996
 1015SOL    HW2 3832   3.354   3.726   3.910 -0.1100 -0.4449 -0.2441
 1015SOL    HW3 3833   3.458   3.617   3.892  0.3344 -0.0126 -0.3127
 1015SOL    MW4 3834   3.416   3.674   3.943  0.5657 -0.5914 -0.4771
 1016SOL     OW 3835   4.713   4.231   0.425 -0.0269  0.1259  0.0481
 1016SOL    HW2 3836   4.739   4.281   0.503 -0.3745  0.3301  0.0344
 1016SOL    HW3 3837   4.699   4.298   0.358 -0.2892 -0.0058 -0.0302
 1016SOL    MW4 3838   4.715   4.247   0.426 -0.0399 -0.0408  0.0416
 1017SOL     OW 3839   5.222   5.273   5.727  0.1939  0.2017 -0.1695
 1017SOL    HW2 3840   5.197   5.257   5.636  1.9170  0.9483 -0.8087
 1017SOL    HW3 3841   5.271   5.355   5.725 -0.6971  0.8547  1.6283
 1017SOL    MW4 3842   5.225   5.281   5.715  0.4730 -0.5488  0.2791
 1018SOL     OW 3843   5.861   6.135   0.111 -0.0350  0.2953  0.4267
 1018SOL    HW2 3844   5.812   6.215   0.094 -0.5924 -0.0282  0.4649
 1018SOL    HW3 3845   5.895   6.109   0.025 -0.2099  0.3451  0.3420
 1018SOL    MW4 3846   5.859   6.142   0.097  0.4146 -0.0196 -0.1351
 1019SOL     OW 3847   0.969   3.320   0.121 -0.1334  0.3763 -0.0013
 1019SOL    HW2 3848   0.900   3.362   0.172 -0.8734  0.2124 -0.8450
 1019SOL    HW3 3849   0.923   3.271   0.053  0.8152  0.3721 -0.6701
 1019SOL    MW4 3850   0.954   3.319   0.119 -0.3476  0.0312  0.0301
 1020SOL     OW 3851   0.661   4.678   4.310 -0.0019  0.3749  0.9344
 1020SOL    HW2 3852   0.586   4.677   4.250  0.2361 -0.3892  0.6344
 1020SOL    HW3 3853   0.736   4.700   4.255  0.7506 -3.3524  0.2311
 1020SOL    MW4 3854   0.661   4.681   4.295 -0.0684  0.7252  0.5042
 1021SOL     OW 3855   3.545   3.177   3.307 -0.0157 -0.7432  0.4146
 1021SOL    HW2 3856   3.549   3.271   3.321  0.0876 -0.3802 -1.7770
 1021SOL    HW3 3857   3.579   3.139   3.389  2.4843  1.1814  0.3892
 1021SOL    MW4 3858   3.550   3.184   3.320 -0.0534 -0.1238 -0.1088
 1022SOL     OW 3859   5.820   4.875   4.081 -0.3717 -0.1900  0.5436
 1022SOL    HW2 3860   5.779   4.789   4.074 -0.3648 -0.0898 -0.8211
 1022SOL    HW3 3861   5.821   4.909   3.992 -0.0245  1.0701  1.0094
 1022SOL    MW4 3862   5.815   4.868   4.069 -0.5655 -0.3781  0.0916
 1023SOL     OW 3863   4.619   6.349   2.256  0.1645  0.1261  0.7446
 1023SOL    HW2 3864   4.568   6.290   2.202 -0.7553  0.9542  0.6926
 1023SOL    HW3 3865   4.681   6.390   2.195 -1.1057  1.3225  0.2255
 1023SOL    MW4 3866   4.621   6.346   2.241 -0.1703  0.1301 -0.4538
 1024SOL     OW 3867   1.122   2.910   4.314  0.0967  0.2985 -0.8989
 1024SOL    HW2 3868   1.122   2.882   4.406  0.7460 -0.5158 -1.1315
 1024SOL    HW3 3869   1.119   2.828   4.265 -1.9575  0.7494 -1.6249
 1024SOL    MW4 3870   1.122   2.895   4.320  0.0547  0.2566  0.3607
 1025SOL     OW 3871   0.159   1.801   4.778  0.8539 -0.0910 -1.1394
 1025SOL    HW2 3872   0.092   1.735   4.760 -0.6392  0.7957  0.8050
 1025SOL    HW3 3873   0.169   1.849   4.695 -4.6956  2.9865 -0.4790
 1025SOL    MW4 3874   0.152   1.799   4.765  0.2478 -0.0710  0.1000
 1026SOL     OW 3875   2.533   0.423   5.893 -0.3128  0.3980  0.1306
 1026SOL    HW2 3876   2.546   0.510   5.856 -0.3253  0.6493  0.7087
 1026SOL    HW3 3877   2.599   0.416   5.962  0.3025 -0.4097 -0.5248
 1026SOL    MW4 3878   2.544   0.433   5.897  0.4123  0.1731  0.1551
 1027SOL     OW 3879   2.623   2.621   0.942 -0.2366 -0.8309  0.4583
 1027SOL    HW2 3880   2.534   2.585   0.932 -0.1322 -0.6283 -1.8200
 1027SOL    HW3 3881   2.625   2.694   0.881  1.2212 -0.2145  1.2085
 1027SOL    MW4 3882   2.611   2.626   0.933  0.4065 -0.0084  0.3370
 1028SOL     OW 3883   6.238   6.116   0.699  0.2248  0.0161  0.2025
 1028SOL    HW2 3884   6.243   6.036   0.752 -0.0179 -0.2964 -0.2429
 1028SOL    HW3 3885   6.151   6.152   0.719  0.7948  0.8185  1.3201
 1028SOL    MW4 3886   6.227   6.110   0.709  0.2391  0.3138 -0.0727
 1029SOL     OW 3887   5.679   2.420   2.203  0.9242  0.0303  0.1059
 1029SOL    HW2 3888   5.601   2.457   2.245  1.8227 -1.5262  3.4966
 1029SOL    HW3 3889   5.648   2.339   2.163  0.5707 -0.0473  0.5191
 1029SOL    MW4 3890   5.664   2.415   2.204  0.3063 -0.1107  0.2120
 1030SOL     OW 3891   0.479   3.660   6.086 -0.3823 -0.2383 -0.0212
 1030SOL    HW2 3892   0.544   3.619   6.029 -0.9751 -0.7026 -0.3789
 1030SOL    HW3 3893   0.404   3.601   6.082 -0.5284 -0.1380  1.0367
 1030SOL    MW4 3894   0.478   3.647   6.078  0.1351  0.4517 -0.2931
 1031SOL     OW 3895   2.718   2.096   0.669  0.5290  0.1039 -0.1926
 1031SOL    HW2 3896   2.730   2.004   0.648  0.8028 -0.1132  0.8401
 1031SOL    HW3 3897   2.786   2.115   0.734  0.1272  0.8781  0.0196
 1031SOL    MW4 3898   2.728   2.086   0.675 -0.6396 -0.5585  0.1125
 1032SOL     OW 3899   5.878   1.641   5.624  0.7666 -0.7814  0.0938
 1032SOL    HW2 3900   5.856   1.694   5.547  1.1751 -1.1088 -0.2488
 1032SOL    HW3 3901   5.801   1.586   5.638  0.3129 -0.0637  0.4875
 1032SOL    MW4 3902   5.865   1.641   5.616 -0.8199  0.2699  0.5539
 1033SOL     OW 3903   1.917   4.276   0.531 -0.7543  0.4554  0.1805
 1033SOL    HW2 3904   2.012   4.264   0.533 -0.6992  0.8609  1.9640
 1033SOL    HW3 3905   1.888   4.225   0.456  0.9508  1.0283 -0.9380
 1033SOL    MW4 3906   1.926   4.268   0.521  0.0132  0.6617 -0.6364
 1034SOL     OW 3907   5.738   3.533   1.088  0.0855 -0.2604 -0.0286
 1034SOL    HW2 3908   5.798   3.528   1.162 -0.0118 -0.1113  0.0596
 1034SOL    HW3 3909   5.655   3.500   1.123 -0.4716  1.5450  0.4512
 1034SOL    MW4 3910   5.735   3.528   1.102  0.3422 -0.0520 -0.6159
 1035SOL     OW 3911   0.614   4.184   1.080 -0.6363  0.1206 -0.0321
 1035SOL    HW2 3912   0.683   4.235   1.037 -0.7612 -0.7567 -1.3247
 1035SOL    HW3 3913   0.642   4.093   1.069 -1.6175 -0.2072  0.1078
 1035SOL    MW4 3914   0.627   4.179   1.073  0.2831 -0.1748  0.4916
 1036SOL     OW 3915   0.693   6.213   1.281  0.0007 -0.5253  0.3536
 1036SOL    HW2 3916   0.649   6.140   1.325 -0.9911  0.2234  0.6389
 1036SOL    HW3 3917   0.703   6.184   1.190 -0.9110 -0.7884  0.3308
 1036SOL    MW4 3918   0.689   6.199   1.275  0.0283  0.3277 -0.2070
 1037SOL     OW 3919   5.648   3.489   3.926 -0.3604 -0.3122  0.2013
 1037SOL    HW2 3920   5.592   3.557   3.888  1.3683  0.0712 -1.8408
 1037SOL    HW3 3921   5.694   3.534   3.998  0.1867  0.5072 -0.6285
 1037SOL    MW4 3922   5.647   3.504   3.931 -0.3473  0.3455 -0.0756
 1038SOL     OW 3923   3.171   1.819   0.700 -0.0683  0.4257  0.0099
 1038SOL    HW2 3924   3.089   1.792   0.742  0.8067 -0.1325  1.3999
 1038SOL    HW3 3925   3.175   1.914   0.714 -0.2389  0.3819  0.3609
 1038SOL    MW4 3926   3.160   1.828   0.707 -0.0229  0.6171  0.7001
 1039SOL     OW 3927   4.375   4.653   1.151  0.4876 -0.4422 -0.5831
 1039SOL    HW2 3928   4.389   4.589   1.222 -0.2110  1.2075  1.1235
 1039SOL    HW3 3929   4.435   4.724   1.171  2.0459 -0.9471 -3.0771
 1039SOL    MW4 3930   4.384   4.654   1.163 -0.3063 -0.9288  0.4292
 1040SOL     OW 3931   1.407   5.092   5.111 -0.3137  0.0363 -0.4438
 1040SOL    HW2 3932   1.486   5.142   5.088 -1.0410  1.0200 -0.8856
 1040SOL    HW3 3933   1.440   5.017   5.160  0.8662  0.6776 -0.2076
 1040SOL    MW4 3934   1.422   5.089   5.115  0.0574  0.6056 -0.4685
 1041SOL     OW 3935   0.109   5.467   2.940 -0.0838  0.4184  0.0141
 1041SOL    HW2 3936   0.027   5.466   2.891  0.7465  2.1635 -1.5353
 1041SOL    HW3 3937   0.102   5.393   3.000 -2.7140  0.4468 -0.1539
 1041SOL    MW4 3938   0.098   5.457   2.941  0.1012  0.1178 -0.1769
 1042SOL     OW 3939   0.589   3.262   5.799 -0.5149  0.3224 -0.1113
 1042SOL    HW2 3940   0.601   3.352   5.828  0.9752  0.5916 -1.4340
 1042SOL    HW3 3941   0.631   3.209   5.867 -0.8718  0.6407  0.3671
 1042SOL    MW4 3942   0.596   3.267   5.812  0.4953  0.3615 -0.6153
 1043SOL     OW 3943   0.033   5.134   3.435 -0.0408 -0.2381  0.2811
 1043SOL    HW2 3944   0.023   5.124   3.341  1.9458 -1.0054  0.1166
 1043SOL    HW3 3945   0.002   5.051   3.472  2.2589 -1.2800  0.0168
 1043SOL    MW4 3946   0.028   5.122   3.428 -0.3343 -0.1041  0.1659
 1044SOL     OW 3947   2.615   4.075   3.393 -0.1623 -0.0135  0.3086
 1044SOL    HW2 3948   2.560   4.000   3.371 -0.2226 -0.1220  0.8170
 1044SOL    HW3 3949   2.686   4.072   3.329 -0.4273 -0.2163  0.0203
 1044SOL    MW4 3950   2.617   4.065   3.382 -0.0026  0.7650 -0.1140
 1045SOL     OW 3951   6.135   4.908   1.615 -0.0783  0.1462  0.2877
 1045SOL    HW2 3952   6.047   4.946   1.620 -0.2692  0.1760 -2.2576
 1045SOL    HW3 3953   6.186   4.971   1.565  1.3702 -0.0188  1.4718
 1045SOL    MW4 3954   6.130   4.921   1.609  0.1544 -0.1204  0.0796
 1046SOL     OW 3955   5.592   6.247   1.072  0.5158 -0.0775 -0.1759
 1046SOL    HW2 3956   5.587   6.277   0.981  1.5921  0.8198  0.0383
 1046SOL    HW3 3957   5.677   6.279   1.103  0.7142 -1.4627  0.7675
 1046SOL    MW4 3958   5.603   6.255   1.064 -0.4905 -0.1538  0.3385
 1047SOL     OW 3959   3.706   5.396   4.864 -0.1904  0.2657  0.5126
 1047SOL    HW2 3960   3.695   5.462   4.796 -1.6119  1.4524  1.8101
 1047SOL    HW3 3961   3.774   5.337   4.831  0.7056  2.0423 -0.9384
 1047SOL    MW4 3962   3.714   5.397   4.851 -0.3429  0.3614 -0.0406
 1048SOL     OW 3963   5.081   4.841   2.491  0.3630 -0.0316 -0.8457
 1048SOL    HW2 3964   5.108   4.871   2.578  0.4800 -0.0548 -0.8742
 1048SOL    HW3 3965   4.999   4.793   2.507  1.2062 -1.4240 -0.5210
 1048SOL    MW4 3966   5.073   4.839   2.504 -0.9452 -0.1947 -0.3442
 1049SOL     OW 3967   5.703   1.540   5.279  0.1131 -0.3574 -0.0615
 1049SOL    HW2 3968   5.757   1.553   5.201  1.5442 -2.2984  0.5339
 1049SOL    HW3 3969   5.703   1.446   5.293 -1.3990 -0.1808  1.4209
 1049SOL    MW4 3970   5.710   1.529   5.270 -0.0032  0.0485 -0.2345
 1050SOL     OW 3971   6.126   5.248   1.812 -0.2659  0.3990  0.1578
 1050SOL    HW2 3972   6.152   5.162   1.779  0.9940  0.3336  1.2445
 1050SOL    HW3 3973   6.070   5.229   1.888  0.1641  0.5257  0.5114
 1050SOL    MW4 3974   6.122   5.234   1.818 -0.1823 -0.3969 -1.0076
 1051SOL     OW 3975   1.460   1.579   3.237  0.2578  0.4060 -0.2099
 1051SOL    HW2 3976   1.446   1.669   3.268 -0.8988  0.5498 -1.0653
 1051SOL    HW3 3977   1.476   1.528   3.317  3.6504  1.7576  0.1460
 1051SOL    MW4 3978   1.460   1.584   3.252  0.0416  0.0921 -0.9391
 1052SOL     OW 3979   3.307   0.323   5.247 -0.2709  0.3720  0.0273
 1052SOL    HW2 3980   3.309   0.338   5.342 -1.4364  2.0840 -0.1627
 1052SOL    HW3 3981   3.332   0.408   5.210 -0.2391 -0.1631 -1.2056
 1052SOL    MW4 3982   3.311   0.336   5.255  0.5573  0.0805  0.8276
 1053SOL     OW 3983   4.127   5.502   4.740  0.1279 -0.0298  0.1165
 1053SOL    HW2 3984   4.078   5.578   4.708  0.6457  0.5804  0.7282
 1053SOL    HW3 3985   4.067   5.458   4.799 -0.0526  0.1046  0.0347
 1053SOL    MW4 3986   4.113   5.506   4.743  0.4809 -0.9369 -0.2283
 1054SOL     OW 3987   2.226   1.022   2.852  0.8417 -0.2960 -0.2198
 1054SOL    HW2 3988   2.213   0.968   2.930 -1.7634 -0.2146 -0.5077
 1054SOL    HW3 3989   2.230   0.959   2.780 -1.9972 -0.2211 -0.5332
 1054SOL    MW4 3990   2.225   1.007   2.853  0.0431  0.1578 -0.6727
 1055SOL     OW 3991   1.823   5.940   5.290  0.5412  0.1788 -0.4731
 1055SOL    HW2 3992   1.854   5.851   5.306  0.4608  0.3655  0.8390
 1055SOL    HW3 3993   1.750   5.930   5.229  0.7945 -0.6121 -0.6511
 1055SOL    MW4 3994   1.818   5.927   5.284  0.0275  0.2384 -0.0164
 1056SOL     OW 3995   3.876   0.432   5.130 -0.1353 -0.5516  0.0022
 1056SOL    HW2 3996   3.885   0.464   5.219  0.6355 -1.5941  0.3141
 1056SOL    HW3 3997   3.931   0.490   5.077 -0.8005  0.2308  0.1485
 1056SOL    MW4 3998   3.884   0.444   5.135  0.0218 -0.2389  0.1958
 1057SOL     OW 3999   1.645   2.933   1.318 -0.8067 -0.4001 -0.1052
 1057SOL    HW2 4000   1.558   2.962   1.343 -0.6863  1.4662 -1.6468
 1057SOL    HW3 4001   1.630   2.877   1.241 -0.7685 -1.8366  0.8913
 1057SOL    MW4 4002   1.631   2.929   1.311  0.0605 -0.1392 -0.0171
 1058SOL     OW 4003   5.403   2.139   1.799 -0.0468 -0.6801 -0.1679
 1058SOL    HW2 4004   5.319   2.103   1.827 -0.9126 -1.4600 -3.3649
 1058SOL    HW3 4005   5.432   2.081   1.728  1.2471  1.7243 -1.7678
 1058SOL    MW4 4006   5.396   2.126   1.793  0.0343  0.1334 -0.0344
 1059SOL     OW 4007   0.848   1.686   0.959  0.1596 -0.0519 -0.4734
 1059SOL    HW2 4008   0.913   1.656   1.023 -0.4976  0.5858  0.5248
 1059SOL    HW3 4009   0.784   1.615   0.955 -0.7916  0.6614  1.0318
 1059SOL    MW4 4010   0.848   1.673   0.967 -0.2904  0.6420 -0.1838
 1060SOL     OW 4011   2.422   1.239   1.317  0.2186 -0.3115 -0.0316
 1060SOL    HW2 4012   2.459   1.276   1.397  0.5152 -0.1751 -0.2287
 1060SOL    HW3 4013   2.497   1.221   1.261 -0.0674  1.2876 -1.0057
 1060SOL    MW4 4014   2.436   1.242   1.320  0.4579 -0.4001 -0.7330
 1061SOL     OW 4015   1.376   4.908   2.280  0.4749  0.4163 -0.1092
 1061SOL    HW2 4016   1.356   4.983   2.336  0.2690 -0.2907  0.7773
 1061SOL    HW3 4017   1.337   4.931   2.195  1.4520  1.8344 -0.2164
 1061SOL    MW4 4018   1.369   4.921   2.276 -0.5411  0.1120 -0.4686
 1062SOL     OW 4019   4.647   0.948   2.549 -0.0499 -0.4259 -0.2586
 1062SOL    HW2 4020   4.728   0.901   2.528 -1.1221 -2.1702 -0.7691
 1062SOL    HW3 4021   4.607   0.896   2.619 -1.8501 -1.0393 -1.6549
 1062SOL    MW4 4022   4.652   0.935   2.555  0.2330  0.6444 -0.0735
 1063SOL     OW 4023   1.860   4.493   1.897 -0.4988  0.0063  0.0067
 1063SOL    HW2 4024   1.771   4.462   1.880 -0.5341  0.0209  0.1658
 1063SOL    HW3 4025   1.858   4.523   1.988 -0.4687  0.4799 -0.1419
 1063SOL    MW4 4026   1.848   4.493   1.907  0.1347  0.2003  0.0027
 1064SOL     OW 4027   0.368   2.940   6.383  0.2430 -0.6038 -0.0483
 1064SOL    HW2 4028   0.296   2.986   6.426  0.2272  1.0096 -1.6863
 1064SOL    HW3 4029   0.330   2.857   6.356 -0.2373 -0.8914  1.4101
 1064SOL    MW4 4030   0.353   2.935   6.385  0.3460 -0.1912  0.3760
 1065SOL     OW 4031   2.497   4.115   4.655  0.3624  0.0805  0.7412
 1065SOL    HW2 4032   2.522   4.098   4.746 -0.4941 -0.5173  0.8691
 1065SOL    HW3 4033   2.508   4.210   4.645  0.1173  0.1991  1.5720
 1065SOL    MW4 4034   2.502   4.126   4.666  0.3645 -0.5624  0.1016
 1066SOL     OW 4035   1.331   5.452   2.659  0.7169 -0.5884  0.0253
 1066SOL    HW2 4036   1.250   5.402   2.655 -0.0871  0.6348  0.2221
 1066SOL    HW3 4037   1.354   5.468   2.567 -2.2906  3.5840 -0.3300
 1066SOL    MW4 4038   1.323   5.448   2.646  0.3043 -0.5262 -0.2899
 1067SOL     OW 4039   1.632   1.743   2.666 -0.3662  0.2376  0.2185
 1067SOL    HW2 4040   1.569   1.796   2.716 -0.0565  0.3001  0.5463
 1067SOL    HW3 4041   1.695   1.807   2.633 -0.6608  0.2154 -0.3939
 1067SOL    MW4 4042   1.632   1.759   2.669 -0.0136  0.6237  0.2006
 1068SOL     OW 4043   2.334   4.330   5.461  0.1459 -0.1603  0.3140
 1068SOL    HW2 4044   2.322   4.238   5.437 -1.3030  0.0742  0.0649
 1068SOL    HW3 4045   2.323   4.377   5.379 -2.2201  0.4496  0.9098
 1068SOL    MW4 4046   2.331   4.324   5.447 -0.1164  0.2125 -0.3021
 1069SOL     OW 4047   4.483   4.200   2.420 -0.1976  0.1321  0.1104
 1069SOL    HW2 4048   4.467   4.254   2.497  0.4795 -0.4330  0.6634
 1069SOL    HW3 4049   4.541   4.130   2.452  2.8901  1.7002 -1.5898
 1069SOL    MW4 4050   4.489   4.198   2.435  0.2548 -0.2768  0.1508
 1070SOL     OW 4051   1.887   3.175   0.347  0.0079  0.5579  0.2141
 1070SOL    HW2 4052   1.960   3.167   0.408 -0.9024  1.1780  1.4222
 1070SOL    HW3 4053   1.920   3.233   0.278  1.5482 -1.3262 -0.7280
 1070SOL    MW4 4054   1.901   3.182   0.346 -0.5505 -0.6218 -0.1220
 1071SOL     OW 4055   2.350   1.269   3.066 -0.2393 -0.3168  0.6584
 1071SOL    HW2 4056   2.367   1.343   3.124  0.0422  0.5897 -0.5587
 1071SOL    HW3 4057   2.279   1.298   3.009  1.1504 -0.2075 -1.1148
 1071SOL    MW4 4058   2.343   1.282   3.066 -0.3466 -0.4702 -0.2617
 1072SOL     OW 4059   4.002   3.595   2.934  0.1575 -0.2042 -0.3904
 1072SOL    HW2 4060   3.970   3.641   2.857 -1.4368  0.7707  0.7971
 1072SOL    HW3 4061   3.934   3.529   2.953  0.2601 -0.0751  0.4751
 1072SOL    MW4 4062   3.989   3.592   2.927 -0.0889 -0.5188  0.0371
 1073SOL     OW 4063   6.126   3.416   3.960 -0.2306  0.6436 -0.0602
 1073SOL    HW2 4064   6.084   3.461   3.887 -0.9317 -0.4008 -0.3193
 1073SOL    HW3 4065   6.106   3.323   3.946  0.8049  0.2872  0.7015
 1073SOL    MW4 4066   6.118   3.410   3.949 -0.0301  0.9415 -0.3333
 1074SOL     OW 4067   2.998   6.406   2.816 -0.4106 -0.0470  0.0470
 1074SOL    HW2 4068   2.926   6.364   2.769 -0.2977 -0.0704 -0.1052
 1074SOL    HW3 4069   2.990   6.373   2.906 -0.2715 -0.4578 -0.0892
 1074SOL    MW4 4070   2.987   6.396   2.822  0.5657 -0.0418  0.2220
 1075SOL     OW 4071   3.217   5.831   1.527 -0.4875  0.1513 -0.0610
 1075SOL    HW2 4072   3.257   5.764   1.470 -0.9858  1.3495 -1.9150
 1075SOL    HW3 4073   3.126   5.835   1.499 -1.2927 -0.6263  2.2668
 1075SOL    MW4 4074   3.210   5.822   1.516  0.4570 -0.6538 -0.1952
 1076SOL     OW 4075   1.721   4.257   5.738 -0.2893 -0.1722  0.3378
 1076SOL    HW2 4076   1.729   4.263   5.833 -0.5940 -0.1077  0.3621
 1076SOL    HW3 4077   1.767   4.334   5.705  1.6988 -1.2902  0.3176
 1076SOL    MW4 4078   1.728   4.268   5.746 -0.1275  0.8034 -0.3856
 1077SOL     OW 4079   2.441   3.617   1.665 -0.0375  0.3833 -0.1099
 1077SOL    HW2 4080   2.424   3.551   1.733  2.4716  0.4333  0.6707
 1077SOL    HW3 4081   2.457   3.566   1.586 -0.4376  0.2055 -0.0825
 1077SOL    MW4 4082   2.440   3.602   1.663 -0.2534  0.0267  0.1501
 1078SOL     OW 4083   4.238   2.231   2.599  0.3458 -0.6658 -0.2852
 1078SOL    HW2 4084   4.308   2.283   2.559 -0.9935  0.3442 -1.4769
 1078SOL    HW3 4085   4.222   2.273   2.684 -1.1111  1.4017 -1.4659
 1078SOL    MW4 4086   4.245   2.244   2.605 -0.5832  0.1819 -0.1181
 1079SOL     OW 4087   0.418   3.094   2.052 -0.3498 -0.3087  0.0810
 1079SOL    HW2 4088   0.390   3.185   2.061 -1.6674 -0.7847  1.2707
 1079SOL    HW3 4089   0.338   3.045   2.035  0.2712 -1.3015 -0.1156
 1079SOL    MW4 4090   0.404   3.099   2.051 -0.5781  0.2215  0.5191
 1080SOL     OW 4091   0.366   2.110   4.328  0.8450 -0.1056 -0.1602
 1080SOL    HW2 4092   0.318   2.189   4.304 -0.4668 -1.2567 -1.4381
 1080SOL    HW3 4093   0.443   2.143   4.375  0.7202  1.9601 -1.2918
 1080SOL    MW4 4094   0.370   2.125   4.331 -0.3345 -0.4437  0.6469
 1081SOL     OW 4095   0.934   5.931   3.990 -0.3786 -0.3069  0.1383
 1081SOL    HW2 4096   0.984   6.008   3.960 -0.1750 -0.3050  0.4807
 1081SOL    HW3 4097   0.996   5.858   3.984  0.7730  0.1816  3.5889
 1081SOL    MW4 4098   0.949   5.932   3.985  0.5084  0.6784 -0.1511
 1082SOL     OW 4099   0.852   1.096   4.476 -0.7209 -0.2337 -0.3388
 1082SOL    HW2 4100   0.937   1.108   4.519 -1.3334 -0.0493  0.8655
 1082SOL    HW3 4101   0.788   1.116   4.544 -1.7372 -0.5958 -1.1656
 1082SOL    MW4 4102   0.855   1.101   4.490  0.1740  0.6399  0.0201
 1083SOL     OW 4103   0.871   1.539   2.803 -0.2161  0.0622 -0.6904
 1083SOL    HW2 4104   0.874   1.454   2.847  0.7766  0.8630  0.8655
 1083SOL    HW3 4105   0.961   1.571   2.807 -0.3032  0.6163 -2.4570
 1083SOL    MW4 4106   0.883   1.532   2.809  0.0188  0.1507  0.5350
 1084SOL     OW 4107   3.557   3.268   0.701  0.6301  0.0389  0.1132
 1084SOL    HW2 4108   3.552   3.295   0.609  0.1779  2.1923  0.7250
 1084SOL    HW3 4109   3.611   3.335   0.743  0.8778 -0.9481  1.4405
 1084SOL    MW4 4110   3.564   3.281   0.694  0.3740 -0.0465 -0.1370
 1085SOL     OW 4111   3.305   4.119   5.724  0.1708 -0.1928 -1.0087
 1085SOL    HW2 4112   3.322   4.204   5.684 -1.5622 -0.0946 -1.6533
 1085SOL    HW3 4113   3.238   4.079   5.668  0.6304 -1.8070 -0.4721
 1085SOL    MW4 4114   3.298   4.125   5.711 -0.2918 -0.4936 -0.2242
 1086SOL     OW 4115   1.722   1.482   3.090  0.2306 -0.1151  0.5270
 1086SOL    HW2 4116   1.652   1.527   3.137  3.0148  1.9635  3.0606
 1086SOL    HW3 4117   1.743   1.540   3.018 -1.1838 -1.2317 -0.8619
 1086SOL    MW4 4118   1.715   1.495   3.087 -0.2193 -0.4461  0.1837
 1087SOL     OW 4119   3.277   5.013   4.674 -0.0249  0.3135 -0.3321
 1087SOL    HW2 4120   3.183   5.030   4.667  0.2314  1.9181 -0.3566
 1087SOL    HW3 4121   3.302   5.055   4.756  1.3909  3.9509 -2.3717
 1087SOL    MW4 4122   3.268   5.021   4.684 -0.3811 -0.4019 -0.0636
 1088SOL     OW 4123   4.878   6.137   1.578  0.1097 -0.5978  0.5414
 1088SOL    HW2 4124   4.945   6.114   1.642 -0.4525 -0.0923  1.3249
 1088SOL    HW3 4125   4.795   6.120   1.622 -0.3097 -1.6083 -0.5539
 1088SOL    MW4 4126   4.876   6.131   1.592  0.1175  0.2305 -0.0290
 1089SOL     OW 4127   5.926   2.775   3.923  0.0270 -0.2072  0.5212
 1089SOL    HW2 4128   5.875   2.773   3.842  1.3682  2.4905 -0.5055
 1089SOL    HW3 4129   6.009   2.734   3.899 -0.3239 -1.3598  1.1938
 1089SOL    MW4 4130   5.930   2.769   3.909 -0.5564 -0.0295  0.6188
 1090SOL     OW 4131   3.298   1.035   6.013  0.3735  0.1532 -0.0872
 1090SOL    HW2 4132   3.249   1.070   6.087 -0.1817 -2.0881  0.6803
 1090SOL    HW3 4133   3.386   1.020   6.048  0.0930 -0.9690  0.1801
 1090SOL    MW4 4134   3.303   1.037   6.027  0.3530  0.2136 -0.5023
 1091SOL     OW 4135   3.280   1.504   0.693  0.0831  0.0282  0.5477
 1091SOL    HW2 4136   3.329   1.551   0.625 -0.1078  0.7241  0.8893
 1091SOL    HW3 4137   3.343   1.491   0.764  1.5087 -4.0468 -1.1247
 1091SOL    MW4 4138   3.295   1.508   0.693  0.6817  0.2808  0.8412
 1092SOL     OW 4139   1.358   1.247   1.170 -0.0810 -0.1807 -0.4440
 1092SOL    HW2 4140   1.383   1.333   1.135 -0.3065 -0.2171 -0.7012
 1092SOL    HW3 4141   1.433   1.191   1.152  0.2159  0.0534  0.0607
 1092SOL    MW4 4142   1.371   1.251   1.163  0.4669 -0.2667  0.3237
 1093SOL     OW 4143   4.375   1.223   3.497 -0.3819 -0.2173  0.3945
 1093SOL    HW2 4144   4.454   1.177   3.522 -0.2470  0.4442  1.2351
 1093SOL    HW3 4145   4.334   1.167   3.431  0.8489 -0.4968 -0.1504
 1093SOL    MW4 4146   4.380   1.210   3.492  0.2457  0.2456  0.1117
 1094SOL     OW 4147   1.289   2.483   1.664 -0.5880  0.0307  0.3240
 1094SOL    HW2 4148   1.256   2.397   1.638  0.7252 -0.3887 -0.0312
 1094SOL    HW3 4149   1.220   2.544   1.638 -1.0971 -0.8048 -0.3476
 1094SOL    MW4 4150   1.276   2.479   1.657  0.1811 -0.1495 -0.2577
 1095SOL     OW 4151   1.861   0.013   4.499 -0.0969  0.4064 -0.4728
 1095SOL    HW2 4152   1.801  -0.032   4.559 -1.7173  1.8542 -0.9054
 1095SOL    HW3 4153   1.857  -0.038   4.419  0.3867 -0.3189 -0.0446
 1095SOL    MW4 4154   1.853   0.001   4.497  0.5264  0.5345 -0.1305
 1096SOL     OW 4155   0.661   5.898   5.826 -0.0807 -0.2086 -0.2272
 1096SOL    HW2 4156   0.685   5.889   5.919  0.0038 -2.5347 -0.4220
 1096SOL    HW3 4157   0.648   5.808   5.796 -0.0502  0.5000 -2.5093
 1096SOL    MW4 4158   0.662   5.885   5.835 -0.1994  0.3862  0.3172
 1097SOL     OW 4159   4.097   0.521   4.290  0.0860 -0.5138 -0.1464
 1097SOL    HW2 4160   4.094   0.564   4.376 -1.6498 -0.7813 -0.0514
 1097SOL    HW3 4161   4.189   0.529   4.263 -0.0734  3.1267 -0.0854
 1097SOL    MW4 4162   4.109   0.527   4.298 -0.8678 -0.4287 -0.9428
 1098SOL     OW 4163   6.419   2.763   3.750 -0.1463  0.1723  0.5617
 1098SOL    HW2 4164   6.436   2.726   3.663  0.0244  2.7801 -0.6186
 1098SOL    HW3 4165   6.347   2.710   3.784  1.1374 -2.2337 -0.2444
 1098SOL    MW4 4166   6.412   2.751   3.743 -0.0481  0.3286 -0.0039
 1099SOL     OW 4167   3.351   5.605   1.400 -0.1402  0.1269  0.0234
 1099SOL    HW2 4168   3.339   5.668   1.329  1.0383 -0.0606 -0.3550
 1099SOL    HW3 4169   3.306   5.526   1.371  1.5779 -0.4622 -1.2308
 1099SOL    MW4 4170   3.344   5.603   1.387  0.0703  0.1416  0.4494
 1100SOL     OW 4171   2.560   2.528   0.600 -0.1254 -0.2171 -0.5141
 1100SOL    HW2 4172   2.601   2.559   0.519 -1.4795 -0.5986 -1.4077
 1100SOL    HW3 4173   2.473   2.570   0.600 -0.4004 -0.7564  0.3928
 1100SOL    MW4 4174   2.554   2.538   0.589 -0.3628  0.3326  0.4846
 1101SOL     OW 4175   2.645   1.624   2.867 -0.4536  0.1404 -0.1537
 1101SOL    HW2 4176   2.670   1.645   2.777  1.1059 -0.2524  0.1536
 1101SOL    HW3 4177   2.607   1.704   2.902  1.9904  1.3668 -0.1399
 1101SOL    MW4 4178   2.643   1.637   2.859 -0.4159 -0.2603  0.0093
 1102SOL     OW 4179   2.072   5.267   1.533 -0.3567  0.3459  0.1709
 1102SOL    HW2 4180   2.105   5.193   1.482 -0.4511  0.5238 -0.1556
 1102SOL    HW3 4181   2.126   5.269   1.612 -0.4102 -0.1202  0.2178
 1102SOL    MW4 4182   2.084   5.258   1.536 -0.4054 -0.1199  0.4452
 1103SOL     OW 4183   5.261   5.634   2.280  0.1211  0.6576 -0.4206
 1103SOL    HW2 4184   5.210   5.581   2.341  0.2310 -0.7309 -1.4590
 1103SOL    HW3 4185   5.265   5.580   2.200  2.8545  0.8815 -0.5272
 1103SOL    MW4 4186   5.254   5.620   2.277 -0.2748 -0.2018 -0.5464
 1104SOL     OW 4187   5.890   6.071   4.704  0.6041 -0.1796  0.3855
 1104SOL    HW2 4188   5.802   6.071   4.667  0.8648 -1.4916 -0.2835
 1104SOL    HW3 4189   5.933   6.147   4.664 -0.2931  0.6496  0.9520
 1104SOL    MW4 4190   5.884   6.081   4.694  0.0611  0.0422  0.1613
 1105SOL     OW 4191  -0.004   1.793   4.993  0.1417  0.5285 -0.3334
 1105SOL    HW2 4192   0.016   1.764   5.082  0.0370 -1.4792 -0.9190
 1105SOL    HW3 4193   0.080   1.792   4.947 -0.0900 -0.4588 -0.7721
 1105SOL    MW4 4194   0.010   1.789   4.998 -0.0020  0.4158 -0.2155
 1106SOL     OW 4195   1.661   2.742   2.384  0.1653 -0.3961 -0.3555
 1106SOL    HW2 4196   1.683   2.757   2.292 -1.7206  0.4829 -0.7055
 1106SOL    HW3 4197   1.565   2.741   2.386  0.1175  1.1766  1.8058
 1106SOL    MW4 4198   1.651   2.744   2.372  0.0371  0.1972  0.3089
 1107SOL     OW 4199   1.137   5.462   0.525 -0.4599  0.3251 -0.2063
 1107SOL    HW2 4200   1.086   5.468   0.605 -3.4171 -1.2230 -1.8034
 1107SOL    HW3 4201   1.220   5.422   0.552 -0.8147  1.0782  2.2147
 1107SOL    MW4 4202   1.141   5.457   0.539  0.1063  0.3452  0.4476
 1108SOL     OW 4203   5.220   1.782   0.406  0.3966 -0.4118 -0.1728
 1108SOL    HW2 4204   5.261   1.740   0.330  0.0464 -0.0000 -0.5974
 1108SOL    HW3 4205   5.292   1.794   0.468  0.5088 -1.5740 -0.0665
 1108SOL    MW4 4206   5.235   1.778   0.404  0.1207  0.1147 -0.0694
 1109SOL     OW 4207   2.795   3.925   5.765  0.3559 -0.0389 -0.2524
 1109SOL    HW2 4208   2.786   3.955   5.674  0.9774 -0.3466 -0.4186
 1109SOL    HW3 4209   2.875   3.874   5.765  1.0647  1.0474  0.7607
 1109SOL    MW4 4210   2.804   3.923   5.753  0.2253 -0.2055 -0.2264
 1110SOL     OW 4211   5.025   3.430   0.413  0.2894 -0.0176 -0.5502
 1110SOL    HW2 4212   5.008   3.358   0.351  1.8920 -0.7753 -0.1647
 1110SOL    HW3 4213   5.013   3.390   0.499 -1.2693  0.8632 -0.3236
 1110SOL    MW4 4214   5.021   3.415   0.416  0.3392 -0.1513 -0.1560
 1111SOL     OW 4215   1.766   6.262   4.705 -0.0756 -0.0590 -0.1069
 1111SOL    HW2 4216   1.761   6.351   4.739 -0.3813 -0.3578  0.6598
 1111SOL    HW3 4217   1.710   6.211   4.763  1.6932 -1.1367  0.7485
 1111SOL    MW4 4218   1.758   6.267   4.717 -0.1324 -0.7944 -0.2968
 1112SOL     OW 4219   5.857   4.181   2.754 -0.4992 -0.1879 -0.1263
 1112SOL    HW2 4220   5.843   4.106   2.696 -0.6941  0.0454 -0.3795
 1112SOL    HW3 4221   5.793   4.246   2.726 -1.2472 -0.4240  0.9713
 1112SOL    MW4 4222   5.847   4.180   2.743 -0.1126 -1.0459 -0.1725
 1113SOL     OW 4223   1.323   2.786   5.520 -0.3158  0.1955 -0.4473
 1113SOL    HW2 4224   1.314   2.858   5.458 -1.7516  0.0307 -0.4591
 1113SOL    HW3 4225   1.273   2.814   5.597  1.2306  0.2849  0.5709
 1113SOL    MW4 4226   1.315   2.799   5.522  0.8031  0.0025 -0.7628
 1114SOL     OW 4227   4.977   0.292   4.614  0.4549 -0.3760  0.1180
 1114SOL    HW2 4228   4.925   0.215   4.594  0.3967  0.5133 -4.4383
 1114SOL    HW3 4229   5.063   0.258   4.640  1.3383 -2.3629 -4.3575
 1114SOL    MW4 4230   4.982   0.277   4.615 -0.3256 -0.8318  0.3797
 1115SOL     OW 4231   1.088   1.351   6.235  0.2872 -0.6670 -0.0356
 1115SOL    HW2 4232   1.159   1.398   6.281 -0.9280  0.8235  0.3985
 1115SOL    HW3 4233   1.008   1.387   6.273 -0.8206  0.6213 -3.2661
 1115SOL    MW4 4234   1.087   1.362   6.246 -0.0833  0.2224 -0.8666
 1116SOL     OW 4235   2.619   0.005   5.467  0.3047  0.0549  0.2630
 1116SOL    HW2 4236   2.650   0.051   5.545  2.5484 -0.5570 -0.2085
 1116SOL    HW3 4237   2.574  -0.072   5.502  0.8465  0.0419  0.9608
 1116SOL    MW4 4238   2.617   0.001   5.482 -0.3650  0.2131  0.1508
 1117SOL     OW 4239   2.707   4.512   0.765  0.2843 -0.2125 -0.5063
 1117SOL    HW2 4240   2.702   4.583   0.701 -0.4107 -1.0576 -1.4194
 1117SOL    HW3 4241   2.733   4.435   0.714  0.1221 -0.8182  0.3016
 1117SOL    MW4 4242   2.710   4.511   0.749  0.6913 -0.5250  0.0111
 1118SOL     OW 4243   3.275   2.786   0.957 -0.1067 -0.1804  0.4947
 1118SOL    HW2 4244   3.180   2.778   0.966 -0.2651  1.4155  0.3856
 1118SOL    HW3 4245   3.296   2.732   0.881 -1.0871  0.3998 -0.2093
 1118SOL    MW4 4246   3.265   2.778   0.948 -0.3715  0.1646 -0.1194
 1119SOL     OW 4247   6.151   2.899   4.888  0.3087  0.3708 -0.1985
 1119SOL    HW2 4248   6.147   2.968   4.955 -0.8451 -0.1393  0.2774
 1119SOL    HW3 4249   6.059   2.877   4.870  0.6360 -0.3778 -1.0475
 1119SOL    MW4 4250   6.138   2.906   4.894  0.4909 -0.2416  0.4660
 1120SOL     OW 4251   0.817   5.354   3.550 -0.3814 -0.3971  0.0401
 1120SOL    HW2 4252   0.773   5.287   3.497 -1.8125  1.4150 -1.1889
 1120SOL    HW3 4253   0.880   5.395   3.491 -1.8430  1.5016 -0.2988
 1120SOL    MW4 4254   0.819   5.350   3.535 -0.3030  0.3389 -0.4421
 1121SOL     OW 4255   0.718   0.424   5.953  0.0409  0.2900  0.3860
 1121SOL    HW2 4256   0.783   0.405   5.885  0.7547  1.0683  0.8298
 1121SOL    HW3 4257   0.653   0.354   5.945  0.6109 -0.1551 -0.4733
 1121SOL    MW4 4258   0.718   0.412   5.943 -0.4379  0.2529  1.1755
 1122SOL     OW 4259   5.726   6.070   4.355 -0.1640 -0.6679 -0.3646
 1122SOL    HW2 4260   5.666   5.999   4.336  0.7750 -1.6868  0.3309
 1122SOL    HW3 4261   5.705   6.096   4.445  0.5867 -1.2295 -0.0091
 1122SOL    MW4 4262   5.716   6.064   4.364  0.2185  0.5244  0.0109
 1123SOL     OW 4263   5.612   1.811   0.907  0.1001  0.5341 -0.0029
 1123SOL    HW2 4264   5.569   1.729   0.882 -0.6074  0.8605  0.1158
 1123SOL    HW3 4265   5.705   1.790   0.910 -0.0205 -0.1121 -0.5752
 1123SOL    MW4 4266   5.619   1.798   0.904 -0.3241  0.2985 -0.4797
 1124SOL     OW 4267   1.998   0.333   0.788  0.0569  0.6620  0.1544
 1124SOL    HW2 4268   1.955   0.414   0.814 -0.4516  0.2545  0.6278
 1124SOL    HW3 4269   2.086   0.339   0.826  0.3127  1.3543 -0.5327
 1124SOL    MW4 4270   2.004   0.344   0.796  0.6419  0.1669  0.0985
 1125SOL     OW 4271   5.529   4.001   2.752 -0.7966 -0.2771 -0.3110
 1125SOL    HW2 4272   5.504   4.093   2.754 -2.1973 -0.6141 -0.6421
 1125SOL    HW3 4273   5.618   4.000   2.720 -0.7427  0.9651 -0.2340
 1125SOL    MW4 4274   5.537   4.013   2.748  0.3132  0.2479 -0.5802
 1126SOL     OW 4275   4.286   1.889   6.409  0.4519  0.6339 -0.0125
 1126SOL    HW2 4276   4.313   1.831   6.480  0.0160 -1.6157 -1.5726
 1126SOL    HW3 4277   4.350   1.961   6.410  0.4836  0.6611  2.5555
 1126SOL    MW4 4278   4.298   1.891   6.418  0.1171  0.1066 -0.5044
 1127SOL     OW 4279   1.673   3.634   4.316  0.6420 -1.0007 -0.3692
 1127SOL    HW2 4280   1.679   3.538   4.316  0.6017 -1.0037  0.0817
 1127SOL    HW3 4281   1.763   3.664   4.331  0.4648 -0.9845  0.7056
 1127SOL    MW4 4282   1.686   3.625   4.318 -0.8779  0.3064  0.1713
 1128SOL     OW 4283   4.741   4.323   3.555  0.0839  0.1977 -0.4197
 1128SOL    HW2 4284   4.807   4.264   3.521  1.3342  0.7720  0.9097
 1128SOL    HW3 4285   4.686   4.269   3.612 -0.7476 -0.3178 -1.6677
 1128SOL    MW4 4286   4.742   4.308   3.558 -0.1469 -0.1671  0.3393
 1129SOL     OW 4287   0.056   0.604   6.398  0.1113 -0.4705 -0.0453
 1129SOL    HW2 4288   0.057   0.696   6.426 -1.5813 -0.2888 -0.4962
 1129SOL    HW3 4289   0.078   0.555   6.477 -0.9091  0.2375  0.7092
 1129SOL    MW4 4290   0.059   0.610   6.412 -0.0472  0.1729 -0.0166
 1130SOL     OW 4291   1.065   1.431   4.143  0.2564 -0.0738 -0.1509
 1130SOL    HW2 4292   1.049   1.337   4.132  0.9593 -0.1187 -0.8335
 1130SOL    HW3 4293   0.978   1.471   4.138  0.0958 -0.5470 -1.2615
 1130SOL    MW4 4294   1.051   1.424   4.141  0.0719 -0.1900 -0.0301
 1131SOL     OW 4295   2.670   0.526   4.534 -0.1604  0.1621  0.6531
 1131SOL    HW2 4296   2.724   0.490   4.605 -1.0937  0.1009  1.3555
 1131SOL    HW3 4297   2.643   0.450   4.483  1.1482  0.2753 -0.2572
 1131SOL    MW4 4298   2.674   0.511   4.537  0.1447  0.8293  0.2836
 1132SOL     OW 4299   5.277   1.020   3.439 -0.2436  0.1719 -0.2595
 1132SOL    HW2 4300   5.219   1.037   3.365 -1.5206  0.5788  0.7909
 1132SOL    HW3 4301   5.363   1.004   3.400 -0.6303  1.5373 -1.7450
 1132SOL    MW4 4302   5.281   1.020   3.424  0.1980 -0.8217  0.2604
 1133SOL     OW 4303   1.784   1.705   0.301 -0.0023 -0.4564  0.1395
 1133SOL    HW2 4304   1.777   1.765   0.226 -2.0387  0.0959  0.7143
 1133SOL    HW3 4305   1.811   1.761   0.374 -0.9436 -0.3975  0.4575
 1133SOL    MW4 4306   1.787   1.720   0.301 -0.8797 -0.6771  0.3402
 1134SOL     OW 4307   3.396   0.304   2.350 -0.0237 -0.0960  0.2811
 1134SOL    HW2 4308   3.459   0.362   2.392 -0.6264  0.0811  0.9595
 1134SOL    HW3 4309   3.390   0.228   2.407 -0.8501  0.1458  0.5338
 1134SOL    MW4 4310   3.403   0.302   2.363 -0.2086 -0.0565 -0.3658
 1135SOL     OW 4311   5.265   5.091   1.125 -0.0550  0.2660 -0.4590
 1135SOL    HW2 4312   5.350   5.058   1.095  1.0933  0.7354  2.0108
 1135SOL    HW3 4313   5.256   5.177   1.084 -0.1764 -0.4862 -2.0728
 1135SOL    MW4 4314   5.275   5.098   1.116  0.1726  0.4379 -0.4478
 1136SOL     OW 4315   0.684   0.902   2.079  0.7524  0.3613  0.2025
 1136SOL    HW2 4316   0.751   0.958   2.118  1.2875 -1.3511  1.8377
 1136SOL    HW3 4317   0.647   0.853   2.152 -1.8734  0.7415 -0.7417
 1136SOL    MW4 4318   0.688   0.903   2.093  0.1001 -0.1384  0.2790
 1137SOL     OW 4319   4.247   4.070   6.284 -0.4445  0.3253 -0.3339
 1137SOL    HW2 4320   4.313   4.135   6.307  0.7559 -0.5821 -1.0939
 1137SOL    HW3 4321   4.289   3.986   6.302 -1.4524 -0.2730 -0.7088
 1137SOL    MW4 4322   4.261   4.068   6.290 -0.2307 -0.1330 -0.0037
 1138SOL     OW 4323   4.939   3.103   2.775  0.2009 -0.3422  0.3148
 1138SOL    HW2 4324   4.895   3.019   2.771  0.6015 -0.5036 -1.3594
 1138SOL    HW3 4325   4.995   3.105   2.697  0.7971  1.1421  0.7422
 1138SOL    MW4 4326   4.941   3.092   2.765  0.0657 -0.1640  0.0668
 1139SOL     OW 4327   6.265   2.811   4.647 -0.5938 -0.1853  0.6902
 1139SOL    HW2 4328   6.299   2.889   4.604  2.0652 -1.1357  0.9112
 1139SOL    HW3 4329   6.235   2.842   4.733 -2.1373  1.0021 -0.2220
 1139SOL    MW4 4330   6.266   2.825   4.653  0.2939 -0.3786 -0.2119
 1140SOL     OW 4331   5.532   1.731   0.422  0.1990 -0.2174  0.0570
 1140SOL    HW2 4332   5.519   1.799   0.487 -0.0045  0.8002 -1.0185
 1140SOL    HW3 4333   5.532   1.649   0.472 -2.3803  0.3105  1.0546
 1140SOL    MW4 4334   5.531   1.729   0.437  0.1026 -0.9276  0.2179
 1141SOL     OW 4335   1.927   5.388   2.722  0.0900 -0.0551  0.7882
 1141SOL    HW2 4336   2.015   5.361   2.697 -0.2861  1.2014 -2.4243
 1141SOL    HW3 4337   1.893   5.315   2.774  2.3571 -1.3849  0.5303
 1141SOL    MW4 4338   1.934   5.375   2.725 -0.2421  0.8340 -0.1724
 1142SOL     OW 4339   0.313   1.372   1.092 -0.0248  0.4914  0.0930
 1142SOL    HW2 4340   0.326   1.466   1.087 -1.3581  0.6743 -0.2825
 1142SOL    HW3 4341   0.372   1.343   1.162  2.9290  1.0696 -1.9356
 1142SOL    MW4 4342   0.323   1.380   1.101 -0.0961 -1.0572  0.8817
 1143SOL     OW 4343   0.647   4.530   2.308  0.1254 -0.3467 -0.0218
 1143SOL    HW2 4344   0.615   4.599   2.366 -2.5285 -1.9672  0.5994
 1143SOL    HW3 4345   0.697   4.576   2.241 -0.9907  2.0852  0.7248
 1143SOL    MW4 4346   0.650   4.545   2.307  0.6804  0.0771  0.5645
 1144SOL     OW 4347   1.225   2.273   0.821  0.7089  0.0304 -0.4853
 1144SOL    HW2 4348   1.131   2.259   0.809  0.4292  1.2055  0.2026
 1144SOL    HW3 4349   1.240   2.257   0.914  1.2698 -0.5261 -0.6645
 1144SOL    MW4 4350   1.214   2.269   0.832 -0.0131  0.4699 -0.5011
 1145SOL     OW 4351   4.452   0.521   4.789 -0.1018 -0.2079  1.0409
 1145SOL    HW2 4352   4.402   0.445   4.819  0.0571 -0.3229  1.0187
 1145SOL    HW3 4353   4.466   0.504   4.695  2.1449 -1.4346  1.5199
 1145SOL    MW4 4354   4.447   0.509   4.780 -0.5765 -0.1442  0.0635
 1146SOL     OW 4355   6.377   6.332   0.601 -0.7719  0.3731 -0.2622
 1146SOL    HW2 4356   6.334   6.255   0.638 -0.8317  0.6415  0.2290
 1146SOL    HW3 4357   6.470   6.310   0.600 -0.8881 -0.1521 -1.1942
 1146SOL    MW4 4358   6.383   6.319   0.606 -0.1215  0.2291  0.2848
 1147SOL     OW 4359   3.759   4.147   4.407  0.1687 -0.1606  0.0408
 1147SOL    HW2 4360   3.832   4.099   4.367 -0.7700 -1.2000 -0.4871
 1147SOL    HW3 4361   3.696   4.159   4.336 -0.4617  0.1347  0.6337
 1147SOL    MW4 4362   3.760   4.142   4.392 -0.0544  0.1464 -0.0202
 1148SOL     OW 4363   2.685   4.004   0.336  0.2013 -0.2486  0.0608
 1148SOL    HW2 4364   2.623   4.053   0.391 -0.5844 -0.0566 -0.9516
 1148SOL    HW3 4365   2.760   3.987   0.393 -0.7202 -0.3633  1.2884
 1148SOL    MW4 4366   2.686   4.008   0.351 -0.2140 -0.4948 -0.3165
 1149SOL     OW 4367   3.579   0.827   2.425 -0.0856 -0.8088 -0.6599
 1149SOL    HW2 4368   3.649   0.819   2.360  0.0433 -1.5860 -0.4357
 1149SOL    HW3 4369   3.565   0.738   2.456  0.4679 -0.3464  1.0340
 1149SOL    MW4 4370   3.587   0.814   2.420  0.1186 -0.2250  0.5138
 1150SOL     OW 4371   5.790   0.563   2.021  0.0929 -0.4821 -0.8664
 1150SOL    HW2 4372   5.808   0.656   2.034  0.7133 -0.7622  0.5428
 1150SOL    HW3 4373   5.874   0.525   1.996 -0.0002 -0.7685 -0.7568
 1150SOL    MW4 4374   5.803   0.570   2.020  0.1294 -0.0883 -0.7112
 1151SOL     OW 4375   1.971   1.838   4.084  0.2358 -0.1790 -0.3131
 1151SOL    HW2 4376   2.036   1.783   4.040  0.9546  2.4475 -2.8410
 1151SOL    HW3 4377   2.011   1.924   4.090 -2.1780  1.0241  0.0673
 1151SOL    MW4 4378   1.985   1.842   4.079  0.0247 -0.5657  0.0152
 1152SOL     OW 4379   5.635   4.303   3.398 -0.3760  0.1833 -0.0951
 1152SOL    HW2 4380   5.657   4.394   3.419 -0.8747  0.3429 -0.2506
 1152SOL    HW3 4381   5.559   4.310   3.340 -0.5321 -0.3401  0.0458
 1152SOL    MW4 4382   5.628   4.316   3.393 -0.3631  0.0363  0.7006
 1153SOL     OW 4383   5.261   3.130   3.931 -0.5468  0.1807  0.4636
 1153SOL    HW2 4384   5.220   3.048   3.960  2.0914 -1.5205 -0.2101
 1153SOL    HW3 4385   5.334   3.143   3.993 -1.5457  2.7184  1.2447
 1153SOL    MW4 4386   5.265   3.121   3.943  0.2378 -0.0312 -0.0487
 1154SOL     OW 4387   4.785   3.276   6.154  0.2984 -0.2784  0.6422
 1154SOL    HW2 4388   4.718   3.330   6.112  2.0600  0.4023 -1.4514
 1154SOL    HW3 4389   4.765   3.187   6.125 -0.1997 -0.2094  0.7615
 1154SOL    MW4 4390   4.773   3.271   6.145 -0.3277  0.0181 -0.3251
 1155SOL     OW 4391   0.961   6.046   2.853 -0.1437 -0.5087  0.1891
 1155SOL    HW2 4392   0.965   5.979   2.922 -1.1752 -1.3372 -0.5241
 1155SOL    HW3 4393   0.917   6.121   2.894  0.0964 -0.6452  0.6988
 1155SOL    MW4 4394   0.956   6.047   2.867 -0.1568  0.5193 -0.0732
 1156SOL     OW 4395   6.224   4.744   4.682 -0.2188 -0.0265 -0.3501
 1156SOL    HW2 4396   6.147   4.706   4.641 -1.2269 -0.2199  1.5927
 1156SOL    HW3 4397   6.195   4.829   4.715  0.6651  0.3071 -0.3881
 1156SOL    MW4 4398   6.210   4.751   4.681  0.4184  0.4614  0.6088
 1157SOL     OW 4399   3.844   1.143   2.342  0.6928  0.3042 -0.4568
 1157SOL    HW2 4400   3.885   1.193   2.272  1.1049  0.8414  0.1605
 1157SOL    HW3 4401   3.916   1.119   2.401  0.7609 -2.2466 -1.4343
 1157SOL    MW4 4402   3.859   1.146   2.340  0.6268  0.6110  0.8702
 1158SOL     OW 4403   1.880   2.225   1.528 -1.1210 -0.0611  0.2231
 1158SOL    HW2 4404   1.798   2.228   1.479 -1.7361  1.4762  1.2573
 1158SOL    HW3 4405   1.877   2.302   1.585  0.6832 -0.4146  0.8764
 1158SOL    MW4 4406   1.869   2.235   1.529  0.6962  1.5114 -0.4645
 1159SOL     OW 4407   3.512   3.932   2.910 -0.3115 -0.1485  0.2836
 1159SOL    HW2 4408   3.510   3.996   2.981  1.1104  0.6080 -0.3162
 1159SOL    HW3 4409   3.421   3.923   2.883 -0.6230  1.0241  0.9066
 1159SOL    MW4 4410   3.500   3.939   2.916  0.2205  0.1104 -0.4801
 1160SOL     OW 4411   3.393   4.731   3.421 -0.0385 -0.1626  0.1821
 1160SOL    HW2 4412   3.481   4.768   3.437  0.2515 -0.6496 -0.2772
 1160SOL    HW3 4413   3.364   4.702   3.507 -0.7561  2.1524  0.8011
 1160SOL    MW4 4414   3.401   4.732   3.434  0.0564 -0.1689  0.6867
 1161SOL     OW 4415   4.737   0.581   3.269  0.0642  0.6149  0.1955
 1161SOL    HW2 4416   4.794   0.510   3.297 -0.0977  0.5124  0.2665
 1161SOL    HW3 4417   4.662   0.537   3.228  1.3970  0.7571 -2.6556
 1161SOL    MW4 4418   4.735   0.566   3.267  0.1823 -0.2589  0.6643
 1162SOL     OW 4419   3.276   3.155   5.705  0.1881  0.7883  0.2519
 1162SOL    HW2 4420   3.342   3.216   5.740  1.5174 -1.3182  1.6150
 1162SOL    HW3 4421   3.326   3.095   5.650 -0.9371  0.3060 -0.2693
 1162SOL    MW4 4422   3.291   3.155   5.702  0.1661 -0.2450  0.5190
 1163SOL     OW 4423   0.647   0.304   1.961  0.5783 -0.2892  0.0036
 1163SOL    HW2 4424   0.740   0.313   1.980  0.5036 -0.7900  0.6525
 1163SOL    HW3 4425   0.623   0.219   1.998  0.0600 -0.5847 -0.9667
 1163SOL    MW4 4426   0.656   0.294   1.968 -0.3160 -1.0238  0.4458
 1164SOL     OW 4427   1.446   5.358   1.876 -0.1753 -0.3080 -0.4246
 1164SOL    HW2 4428   1.535   5.379   1.849 -1.0527  0.0525 -3.4562
 1164SOL    HW3 4429   1.444   5.262   1.879  0.0565 -0.3641 -1.5657
 1164SOL    MW4 4430   1.457   5.348   1.873  0.4260 -0.3104  0.5599
 1165SOL     OW 4431   0.202   2.314   4.220  0.1256  0.1412 -0.0913
 1165SOL    HW2 4432   0.150   2.353   4.290  2.3731  0.5426  1.4569
 1165SOL    HW3 4433   0.152   2.332   4.140 -1.6332  1.2560  1.1894
 1165SOL    MW4 4434   0.189   2.321   4.219 -0.0502  0.5385 -0.4334
 1166SOL     OW 4435   4.122   4.583   0.250 -0.5050  0.0878  0.0169
 1166SOL    HW2 4436   4.166   4.499   0.264 -1.6025 -0.5532 -0.2535
 1166SOL    HW3 4437   4.035   4.571   0.287 -1.8894 -0.0848 -2.9738
 1166SOL    MW4 4438   4.117   4.570   0.256 -0.3948  0.2259 -0.2229
 1167SOL     OW 4439   5.464   4.849   6.193  0.1555 -0.3461  0.0574
 1167SOL    HW2 4440   5.435   4.766   6.229 -0.3102 -0.3630 -0.3552
 1167SOL    HW3 4441   5.511   4.891   6.265 -2.2223  0.3719  1.2762
 1167SOL    MW4 4442   5.466   4.844   6.207 -0.0271  0.5939  0.0516
 1168SOL     OW 4443   3.686   5.463   3.775 -0.0104  0.1252  0.5627
 1168SOL    HW2 4444   3.719   5.494   3.691  3.0571 -0.2505  1.5252
 1168SOL    HW3 4445   3.681   5.541   3.830 -3.4819  0.6551 -0.2278
 1168SOL    MW4 4446   3.689   5.477   3.771 -0.9142  0.7952 -0.1279
 1169SOL     OW 4447   2.543   4.248   1.275 -0.3444 -0.0523  0.3011
 1169SOL    HW2 4448   2.463   4.299   1.264 -0.1027 -0.0094 -1.8315
 1169SOL    HW3 4449   2.552   4.200   1.193  1.4789 -0.5350  0.7290
 1169SOL    MW4 4450   2.534   4.249   1.263 -0.3976 -0.4659 -0.0362
 1170SOL     OW 4451   4.582   2.244   1.639  0.5393 -0.3493 -0.5122
 1170SOL    HW2 4452   4.614   2.206   1.558  2.0385 -1.6497  0.6182
 1170SOL    HW3 4453   4.660   2.280   1.681 -0.0300 -0.5522  0.7718
 1170SOL    MW4 4454   4.597   2.244   1.634 -0.1785 -0.0874 -0.3020
 1171SOL     OW 4455   4.721   6.403   4.248  0.2876 -0.3851 -0.4758
 1171SOL    HW2 4456   4.707   6.312   4.224 -1.1378 -0.3296  0.0528
 1171SOL    HW3 4457   4.688   6.454   4.174 -1.7018 -0.2736  0.4123
 1171SOL    MW4 4458   4.715   6.398   4.235 -0.1056  0.3857  0.2832
 1172SOL     OW 4459   4.573   2.873   2.924 -0.4982 -0.5493  0.3454
 1172SOL    HW2 4460   4.500   2.813   2.908 -1.6520  0.9825 -0.4976
 1172SOL    HW3 4461   4.590   2.913   2.838  1.7259 -1.2429  0.3985
 1172SOL    MW4 4462   4.566   2.870   2.910 -0.3457  0.4903 -0.3825
 1173SOL     OW 4463   2.374   1.632   0.218  0.1237  0.8069  0.5086
 1173SOL    HW2 4464   2.361   1.622   0.124 -1.9795  1.4359  0.6725
 1173SOL    HW3 4465   2.402   1.722   0.229  0.9217  0.5714  0.4573
 1173SOL    MW4 4466   2.376   1.642   0.207  0.3500  0.2863 -0.2218
 1174SOL     OW 4467   2.669   0.436   2.543 -0.0498  0.1913  0.4023
 1174SOL    HW2 4468   2.601   0.452   2.478  0.1513 -1.8829 -0.4058
 1174SOL    HW3 4469   2.621   0.405   2.620 -0.0811 -1.8330 -0.3554
 1174SOL    MW4 4470   2.654   0.434   2.545 -0.0880  0.2489 -0.2431
 1175SOL     OW 4471   0.112   5.813   0.435  0.1581  0.4126 -0.5631
 1175SOL    HW2 4472   0.145   5.867   0.364  0.8610  1.3211  0.4236
 1175SOL    HW3 4473   0.018   5.807   0.419  0.4224 -0.1831 -2.0707
 1175SOL    MW4 4474   0.104   5.819   0.424 -0.0331  0.8232 -0.2105
 1176SOL     OW 4475   2.199   1.312   0.209 -0.1314 -0.8920 -0.4664
 1176SOL    HW2 4476   2.153   1.334   0.290  0.3054 -0.4753 -0.3257
 1176SOL    HW3 4477   2.290   1.299   0.236 -0.3902 -3.2178 -0.4876
 1176SOL    MW4 4478   2.205   1.313   0.223 -0.5328 -0.2985 -0.6270
 1177SOL     OW 4479   2.640   3.631   6.354 -0.3630 -0.3472 -0.3086
 1177SOL    HW2 4480   2.693   3.552   6.360 -1.4201 -1.0193  0.5961
 1177SOL    HW3 4481   2.647   3.670   6.441 -0.4368  0.1682 -0.5316
 1177SOL    MW4 4482   2.648   3.626   6.367  0.5083  0.8731 -0.3385
 1178SOL     OW 4483   2.755   2.683   0.109 -0.4458  0.2582 -0.7029
 1178SOL    HW2 4484   2.788   2.771   0.126 -0.2675  0.3176 -1.3234
 1178SOL    HW3 4485   2.751   2.677   0.013  1.2760 -1.0354 -0.7381
 1178SOL    MW4 4486   2.759   2.694   0.099  0.8225 -0.3832 -0.8030
 1179SOL     OW 4487   6.024   4.341   2.264 -0.4721 -0.1481  0.0637
 1179SOL    HW2 4488   6.116   4.360   2.283 -0.1685  0.3130 -1.6850
 1179SOL    HW3 4489   6.009   4.254   2.301  1.1388 -0.9230 -1.0287
 1179SOL    MW4 4490   6.034   4.332   2.272  0.3436 -0.7294  0.5902
 1180SOL     OW 4491   1.260   5.035   6.070 -0.5256 -0.3482  0.0513
 1180SOL    HW2 4492   1.310   5.110   6.104  0.8634 -0.4879 -1.5174
 1180SOL    HW3 4493   1.224   4.992   6.147 -0.8747  1.6013  1.0247
 1180SOL    MW4 4494   1.262   5.039   6.084  0.0374  0.1540  0.2536
 1181SOL     OW 4495   4.832   3.018   2.503  0.2747  0.1178 -0.2156
 1181SOL    HW2 4496   4.763   3.011   2.569  0.9222  1.9553  0.7163
 1181SOL    HW3 4497   4.880   2.935   2.509 -2.2182 -1.5255 -1.3928
 1181SOL    MW4 4498   4.829   3.006   2.512  0.4000  0.1156  0.4049
 1182SOL     OW 4499   0.228   2.671   3.976 -0.4343 -0.1102 -0.1448
 1182SOL    HW2 4500   0.201   2.579   3.978 -1.9787  0.3194  0.4057
 1182SOL    HW3 4501   0.288   2.679   4.050 -1.6988 -0.3051  0.9429
 1182SOL    MW4 4502   0.232   2.660   3.986  0.3361 -0.2745  0.1091
 1183SOL     OW 4503   3.013   0.306   5.250  0.6842 -0.1336  0.6232
 1183SOL    HW2 4504   3.108   0.294   5.253  0.8076  0.9551  1.6772
 1183SOL    HW3 4505   2.979   0.252   5.321  0.3812 -1.4902 -0.5221
 1183SOL    MW4 4506   3.021   0.298   5.260 -0.4070  0.8466  0.0290
 1184SOL     OW 4507   4.971   6.331   1.848  0.1295 -0.3347  0.0039
 1184SOL    HW2 4508   5.064   6.332   1.871 -0.3171  0.5282  2.0577
 1184SOL    HW3 4509   4.952   6.238   1.831  1.2182 -0.6182  0.2314
 1184SOL    MW4 4510   4.981   6.319   1.849  0.7658  0.0180  0.1412
 1185SOL     OW 4511   2.863   1.896   6.127  0.3706 -0.2188  0.0022
 1185SOL    HW2 4512   2.901   1.982   6.144  1.1062 -0.9102  2.1204
 1185SOL    HW3 4513   2.936   1.842   6.096  0.2035 -0.4240 -0.0434
 1185SOL    MW4 4514   2.877   1.900   6.125  0.3410  0.4028 -0.2619
 1186SOL     OW 4515   2.319   4.031   0.084  0.6170  0.2835 -0.1956
 1186SOL    HW2 4516   2.224   4.033   0.090  0.6224  0.3425 -0.1272
 1186SOL    HW3 4517   2.344   3.951   0.131  0.6564  0.7237  0.5383
 1186SOL    MW4 4518   2.310   4.020   0.091 -0.2231  0.4521  0.8391
 1187SOL     OW 4519   0.121   3.032   0.508  0.1779 -0.1645 -0.2040
 1187SOL    HW2 4520   0.149   2.974   0.437  1.6618 -1.7550  1.5527
 1187SOL    HW3 4521   0.031   3.006   0.525 -0.0718 -0.0250 -1.2370
 1187SOL    MW4 4522   0.113   3.021   0.501  0.2277  0.0716 -0.5646
 1188SOL     OW 4523   5.375   0.151   6.406 -0.1166  0.2851  0.2497
 1188SOL    HW2 4524   5.400   0.085   6.341 -0.4211  0.1532  0.2633
 1188SOL    HW3 4525   5.446   0.214   6.405 -0.2132  0.3892 -0.3537
 1188SOL    MW4 4526   5.388   0.150   6.397 -0.3688 -0.0227 -0.4083
 1189SOL     OW 4527   5.676   2.287   4.780 -0.0623  0.0743 -0.0948
 1189SOL    HW2 4528   5.594   2.240   4.765 -0.2840  0.2663  0.4683
 1189SOL    HW3 4529   5.691   2.279   4.874 -0.1570  1.1952  0.0314
 1189SOL    MW4 4530   5.667   2.280   4.790 -0.0046  0.4186  0.1077
 1190SOL     OW 4531   4.582   5.142   3.215  0.3310  0.3428 -0.2745
 1190SOL    HW2 4532   4.518   5.213   3.214  1.6407  1.5876 -1.2161
 1190SOL    HW3 4533   4.557   5.086   3.141  0.5818  1.0915 -0.9437
 1190SOL    MW4 4534   4.570   5.144   3.205  0.1352 -0.0038 -0.6791
 1191SOL     OW 4535   6.180   3.469   5.691 -0.0602  0.5754  0.2608
 1191SOL    HW2 4536   6.107   3.530   5.698  0.0295  0.8111 -0.7065
 1191SOL    HW3 4537   6.234   3.504   5.621  0.2670 -0.3299  0.0437
 1191SOL    MW4 4538   6.177   3.482   5.683 -0.1815  0.0806 -0.1123
 1192SOL     OW 4539   3.030   3.228   5.949 -0.1066 -0.0080  0.0117
 1192SOL    HW2 4540   3.017   3.138   5.919 -0.1195 -0.3238  0.9473
 1192SOL    HW3 4541   2.976   3.280   5.889 -0.1447 -0.6211 -0.5059
 1192SOL    MW4 4542   3.021   3.223   5.937 -0.2871 -0.2113  0.2801
 1193SOL     OW 4543   0.870   3.712   2.818 -0.1985  0.1985  0.3412
 1193SOL    HW2 4544   0.798   3.655   2.844  0.6417 -0.4344  1.3980
 1193SOL    HW3 4545   0.835   3.801   2.826 -0.8371 -0.0932  0.9152
 1193SOL    MW4 4546   0.856   3.716   2.823 -0.3950  0.4392  0.8515
 1194SOL     OW 4547   4.625   6.191   3.658 -0.7388 -0.1577  0.0939
 1194SOL    HW2 4548   4.713   6.182   3.622 -1.6820 -3.6034 -1.8865
 1194SOL    HW3 4549   4.632   6.156   3.748  0.6227  3.7598  1.7054
 1194SOL    MW4 4550   4.638   6.185   3.665 -0.0471  0.3227  0.2878
 1195SOL     OW 4551   3.944   5.020   3.120  0.7515 -1.3344 -0.3171
 1195SOL    HW2 4552   4.006   4.971   3.174 -0.0450 -1.4573  0.5183
 1195SOL    HW3 4553   3.996   5.053   3.047  1.7069 -1.7733  0.1484
 1195SOL    MW4 4554   3.959   5.018   3.117  0.1631 -0.3307  0.4148
 1196SOL     OW 4555   4.601   3.069   0.712  0.0630 -0.1762  0.6877
 1196SOL    HW2 4556   4.693   3.041   0.710 -0.0619 -0.5876  0.0190
 1196SOL    HW3 4557   4.553   2.991   0.683 -0.3884  0.4098 -0.1720
 1196SOL    MW4 4558   4.607   3.055   0.708  0.1083 -0.0564  0.1200
 1197SOL     OW 4559   2.965   3.135   1.043  0.0137  0.2525  0.2725
 1197SOL    HW2 4560   2.918   3.170   1.119 -0.2256  2.4091 -0.7862
 1197SOL    HW3 4561   2.903   3.142   0.971  0.1961 -1.8783 -0.1595
 1197SOL    MW4 4562   2.951   3.141   1.044  0.5082 -0.0554  0.3584
 1198SOL     OW 4563   4.957   1.160   6.340 -0.0783  0.2678  0.1156
 1198SOL    HW2 4564   5.026   1.135   6.279  1.2585  1.9649  0.8150
 1198SOL    HW3 4565   4.987   1.126   6.425 -0.2747  0.6530  0.3457
 1198SOL    MW4 4566   4.970   1.153   6.343 -0.5073 -0.4287 -0.0614
 1199SOL     OW 4567   3.496   2.329   2.198  0.3991  0.7075  0.3880
 1199SOL    HW2 4568   3.569   2.285   2.155 -0.8836 -2.1753  0.9462
 1199SOL    HW3 4569   3.424   2.324   2.135 -0.1603  0.7844  1.0094
 1199SOL    MW4 4570   3.496   2.323   2.184 -0.2286 -0.4180 -0.5524
 1200SOL     OW 4571   0.739   0.467   2.793 -0.2820  0.2602 -0.2498
 1200SOL    HW2 4572   0.773   0.464   2.882  0.6960  1.9530 -0.5291
 1200SOL    HW3 4573   0.723   0.560   2.776  1.2531  0.1971 -2.4589
 1200SOL    MW4 4574   0.741   0.479   2.802 -0.4763 -0.3703 -0.1481
 1201SOL     OW 4575   2.060   2.505   5.650 -0.0849  0.7339  0.5229
 1201SOL    HW2 4576   2.142   2.474   5.613 -0.4574 -0.3780  0.6021
 1201SOL    HW3 4577   2.060   2.599   5.632  0.9483  0.6583  0.0476
 1201SOL    MW4 4578   2.071   2.513   5.643  0.2078 -0.2428 -0.4573
 1202SOL     OW 4579   6.341   3.624   1.179  0.1058 -0.6459 -0.0388
 1202SOL    HW2 4580   6.271   3.600   1.240 -0.9132 -0.4439 -1.1075
 1202SOL    HW3 4581   6.410   3.559   1.195  0.2797 -0.0292  1.9906
 1202SOL    MW4 4582   6.341   3.612   1.189 -0.1964 -0.0314 -0.3149
 1203SOL     OW 4583   1.538   4.990   6.433 -0.0975 -0.0955 -0.1639
 1203SOL    HW2 4584   1.586   4.918   6.475 -1.5364 -0.7188  0.5079
 1203SOL    HW3 4585   1.463   5.005   6.491 -0.3182  1.3335 -0.7888
 1203SOL    MW4 4586   1.534   4.982   6.446 -0.1329  0.5669 -0.5703
 1204SOL     OW 4587   2.298   4.405   1.250  0.3533 -0.3126 -0.4993
 1204SOL    HW2 4588   2.215   4.364   1.272  0.8599 -1.2463 -0.3001
 1204SOL    HW3 4589   2.274   4.487   1.206 -0.6767  0.4063  1.3149
 1204SOL    MW4 4590   2.284   4.411   1.247 -0.1520  0.4855  0.5481
 1205SOL     OW 4591   5.963   2.856   3.011 -0.1099 -0.2243  1.1135
 1205SOL    HW2 4592   5.944   2.831   3.101 -1.0891 -1.3188  0.6390
 1205SOL    HW3 4593   6.049   2.819   2.994 -0.0727 -0.3157  1.4886
 1205SOL    MW4 4594   5.972   2.848   3.020  0.0165 -0.0043 -0.7416
 1206SOL     OW 4595   5.082   2.002   1.377  0.3623 -0.4722 -0.3227
 1206SOL    HW2 4596   5.096   2.001   1.472  2.3703 -0.0116 -0.5794
 1206SOL    HW3 4597   5.062   2.093   1.356 -3.2331 -1.0323 -0.0239
 1206SOL    MW4 4598   5.081   2.014   1.387  0.2406  0.2263  0.1000
 1207SOL     OW 4599   1.584   5.253   5.918  0.5023 -0.2743 -0.0880
 1207SOL    HW2 4600   1.506   5.271   5.865  0.8890 -0.2017 -0.6298
 1207SOL    HW3 4601   1.645   5.323   5.895  0.0953  0.7114  1.6261
 1207SOL    MW4 4602   1.582   5.265   5.908 -0.1162  0.1310  0.1272
 1208SOL     OW 4603   5.872   2.551   0.874 -0.4239  0.0124 -0.4228
 1208SOL    HW2 4604   5.937   2.613   0.907 -0.8973  0.7443 -0.8258
 1208SOL    HW3 4605   5.918   2.467   0.871  0.0988  0.2545  0.5394
 1208SOL    MW4 4606   5.887   2.548   0.878 -0.5127  0.1438 -0.1617
 1209SOL     OW 4607   3.021   1.258   1.909 -0.2704  0.0306  0.4037
 1209SOL    HW2 4608   2.926   1.261   1.925 -0.3990  1.5691 -0.4211
 1209SOL    HW3 4609   3.057   1.326   1.965 -0.0099  1.2986 -1.2172
 1209SOL    MW4 4610   3.013   1.268   1.918 -0.3322 -0.0485  0.3225
 1210SOL     OW 4611   0.516   5.462   4.180 -0.1955 -0.3945 -0.0096
 1210SOL    HW2 4612   0.606   5.494   4.181 -0.6801  1.1099 -1.0199
 1210SOL    HW3 4613   0.520   5.379   4.133  0.6272 -0.1995 -0.2995
 1210SOL    MW4 4614   0.528   5.456   4.174 -0.0764 -0.2927  0.0757
 1211SOL     OW 4615   4.645   2.176   0.446 -0.1875  0.9403  0.5763
 1211SOL    HW2 4616   4.688   2.105   0.494 -0.8740  1.0016  1.3026
 1211SOL    HW3 4617   4.703   2.193   0.371 -1.0401 -1.8427 -0.8490
 1211SOL    MW4 4618   4.659   2.169   0.442 -0.1115 -0.5413  0.3140
 1212SOL     OW 4619   2.968   5.572   0.669  0.3053  0.4841  0.1423
 1212SOL    HW2 4620   3.063   5.583   0.675  0.4333 -0.3998 -0.0886
 1212SOL    HW3 4621   2.956   5.487   0.626 -0.5896  0.5786  0.1761
 1212SOL    MW4 4622   2.979   5.562   0.664 -0.3592  0.0416  0.1350
 1213SOL     OW 4623   0.447   1.798   2.797 -0.6343  0.1100  0.1701
 1213SOL    HW2 4624   0.500   1.720   2.818 -1.4520 -0.9691 -1.5572
 1213SOL    HW3 4625   0.493   1.838   2.723 -1.2369  0.2119 -0.1486
 1213SOL    MW4 4626   0.460   1.793   2.790  0.2804 -0.4143 -1.2338
 1214SOL     OW 4627   1.245   5.831   1.166 -0.3595 -0.2349  0.0385
 1214SOL    HW2 4628   1.202   5.759   1.119 -1.4359  0.0167  0.5905
 1214SOL    HW3 4629   1.251   5.902   1.102 -0.3292 -0.4400 -0.1858
 1214SOL    MW4 4630   1.240   5.831   1.152 -0.2627  0.0791  0.4317
 1215SOL     OW 4631   5.563   2.566   0.170 -0.0607  0.7058  0.1879
 1215SOL    HW2 4632   5.497   2.633   0.190 -0.0405  0.8757 -0.2977
 1215SOL    HW3 4633   5.634   2.614   0.128  0.5056  0.5656  0.9547
 1215SOL    MW4 4634   5.564   2.581   0.167  0.0084 -0.2988  0.0327
 1216SOL     OW 4635   1.432   0.769   1.138 -0.3345  0.1854 -0.0784
 1216SOL    HW2 4636   1.381   0.742   1.215  0.4360 -0.2353  0.2860
 1216SOL    HW3 4637   1.483   0.692   1.115 -0.4326  0.3661 -0.9213
 1216SOL    MW4 4638   1.432   0.755   1.145 -0.4399  0.5121 -0.0998
 1217SOL     OW 4639   1.934   6.383   2.845  0.2970 -0.0508 -0.0772
 1217SOL    HW2 4640   1.996   6.446   2.808 -0.3069 -0.2640 -1.5077
 1217SOL    HW3 4641   1.852   6.432   2.853  0.6844  0.3306  2.1290
 1217SOL    MW4 4642   1.932   6.398   2.841 -0.9252  0.3670 -0.5312
 1218SOL     OW 4643   4.340   2.173   5.016 -0.2482  0.2181 -0.2146
 1218SOL    HW2 4644   4.301   2.113   4.953 -1.4926 -1.4840  2.0038
 1218SOL    HW3 4645   4.415   2.126   5.051  0.1758  0.9525 -0.1241
 1218SOL    MW4 4646   4.345   2.159   5.013 -0.3500  1.0868  0.1020
 1219SOL     OW 4647   5.397   6.397   6.193 -0.1555  0.2874  0.0224
 1219SOL    HW2 4648   5.489   6.401   6.168  0.0068 -0.4253  0.4636
 1219SOL    HW3 4649   5.349   6.412   6.111  0.3464  0.9653 -0.1523
 1219SOL    MW4 4650   5.403   6.399   6.179  0.3490 -0.5861  0.0444
 1220SOL     OW 4651   3.313   4.382   4.404 -0.1397 -0.0660  0.1856
 1220SOL    HW2 4652   3.284   4.470   4.429  0.2577  0.8769 -2.3490
 1220SOL    HW3 4653   3.364   4.396   4.324  0.3965 -2.5595  0.0292
 1220SOL    MW4 4654   3.316   4.396   4.396 -0.3699  0.3637  0.2310
 1221SOL     OW 4655   2.162   6.002   5.465 -0.4652 -0.0904  0.5414
 1221SOL    HW2 4656   2.241   5.956   5.439  0.2391  0.9638  0.7348
 1221SOL    HW3 4657   2.139   6.056   5.389 -1.0015 -0.3828  0.4880
 1221SOL    MW4 4658   2.169   6.003   5.451 -0.4691  0.3376  0.3549
 1222SOL     OW 4659   4.987   4.543   2.721 -0.7128 -0.1223 -0.1807
 1222SOL    HW2 4660   4.902   4.509   2.692 -0.8090 -0.1341  0.1046
 1222SOL    HW3 4661   4.992   4.518   2.813  0.0747 -1.0535 -0.4580
 1222SOL    MW4 4662   4.976   4.535   2.729 -0.4736 -0.5189 -0.0302
 1223SOL     OW 4663   4.743   0.613   2.595  0.0200  0.4520 -0.1805
 1223SOL    HW2 4664   4.772   0.679   2.532 -1.3287 -0.4209 -1.7838
 1223SOL    HW3 4665   4.744   0.659   2.679  1.8334  1.6597 -0.7987
 1223SOL    MW4 4666   4.747   0.628   2.598  0.1050 -0.4543  0.2440
 1224SOL     OW 4667   2.895   2.632   3.949 -1.0366 -0.2023  0.2537
 1224SOL    HW2 4668   2.823   2.607   4.007 -0.7838 -2.4748 -0.3191
 1224SOL    HW3 4669   2.974   2.613   3.999 -0.8326 -0.9273 -0.3235
 1224SOL    MW4 4670   2.896   2.626   3.963 -0.3323 -0.1357  0.1796
 1225SOL     OW 4671   1.274   2.942   0.160  0.2493  0.8245  0.2076
 1225SOL    HW2 4672   1.320   2.986   0.232 -0.9154  1.2414  0.7227
 1225SOL    HW3 4673   1.335   2.874   0.131  0.7745  0.6855  1.5510
 1225SOL    MW4 4674   1.288   2.938   0.166 -0.5233  0.4053  0.0777
 1226SOL     OW 4675   4.837   3.084   5.330 -0.0135 -0.0568  0.2362
 1226SOL    HW2 4676   4.777   3.049   5.396  0.7929 -3.9295 -0.8044
 1226SOL    HW3 4677   4.780   3.119   5.261 -0.9039  1.2316  1.5807
 1226SOL    MW4 4678   4.822   3.084   5.330  0.4809 -0.3308 -0.0272
 1227SOL     OW 4679   4.363   2.145   6.189  0.0974 -0.6160  0.2476
 1227SOL    HW2 4680   4.273   2.140   6.155  0.5040  2.1278 -1.5680
 1227SOL    HW3 4681   4.408   2.072   6.146 -0.7495 -0.6634 -0.6134
 1227SOL    MW4 4682   4.357   2.135   6.179 -0.8504  0.1472  0.2060
 1228SOL     OW 4683   3.592   0.617   3.133 -0.4488 -0.5117  0.2162
 1228SOL    HW2 4684   3.534   0.543   3.150 -0.4036 -1.1567 -2.0268
 1228SOL    HW3 4685   3.538   0.694   3.149 -1.5751 -1.0897 -0.6009
 1228SOL    MW4 4686   3.577   0.617   3.137 -0.6441 -0.0716  0.4295
 1229SOL     OW 4687   0.995   2.351   3.522 -0.0260 -0.3074  0.7380
 1229SOL    HW2 4688   0.995   2.447   3.526  0.7911 -0.2175 -0.8003
 1229SOL    HW3 4689   1.025   2.324   3.609  2.4550  0.9266  0.3697
 1229SOL    MW4 4690   0.999   2.360   3.534 -0.2278 -0.7600 -0.4890
 1230SOL     OW 4691   1.435   5.489   2.396 -0.9693  0.2236 -0.2952
 1230SOL    HW2 4692   1.481   5.436   2.332 -0.1746  0.4929  0.0427
 1230SOL    HW3 4693   1.397   5.561   2.346 -1.8589 -0.5177 -0.7216
 1230SOL    MW4 4694   1.436   5.492   2.381 -0.3353 -0.1787 -0.4332
 1231SOL     OW 4695   2.445   0.833   1.411  0.1900 -0.7371 -0.4250
 1231SOL    HW2 4696   2.503   0.809   1.339 -0.6188 -0.5752 -1.1633
 1231SOL    HW3 4697   2.425   0.751   1.456  3.2601 -0.4768  1.6933
 1231SOL    MW4 4698   2.450   0.819   1.407  0.1078 -0.4015  0.3105
 1232SOL     OW 4699   4.441   2.525   2.679 -0.0162 -0.1885 -0.4185
 1232SOL    HW2 4700   4.410   2.564   2.760 -2.7315 -0.4185 -1.2703
 1232SOL    HW3 4701   4.496   2.451   2.708 -1.4967 -0.7049  1.2295
 1232SOL    MW4 4702   4.444   2.520   2.694 -0.0351 -0.8521 -0.0115
 1233SOL     OW 4703   6.173   4.263   1.583 -0.1716 -1.0023 -0.0381
 1233SOL    HW2 4704   6.198   4.335   1.641 -0.1050  0.1518 -1.4597
 1233SOL    HW3 4705   6.084   4.283   1.556  0.0921 -1.0680 -0.9912
 1233SOL    MW4 4706   6.165   4.275   1.587 -0.1992  0.3595  0.0719
 1234SOL     OW 4707   3.240   2.826   3.480  0.0347  0.0538 -0.3150
 1234SOL    HW2 4708   3.312   2.857   3.536 -2.4959  1.8271  2.2068
 1234SOL    HW3 4709   3.263   2.735   3.460  2.0645 -0.0264  1.9184
 1234SOL    MW4 4710   3.253   2.818   3.485 -0.2765  0.3955  0.0591
 1235SOL     OW 4711   0.039   1.842   4.447  0.6008 -0.3740  0.1767
 1235SOL    HW2 4712   0.049   1.935   4.430 -0.1484 -0.4712 -0.8682
 1235SOL    HW3 4713   0.129   1.808   4.447  0.7598 -0.0693 -2.0677
 1235SOL    MW4 4714   0.052   1.850   4.445 -0.1774  0.3117  0.1277
 1236SOL     OW 4715   0.892   2.564   3.712 -0.1719 -0.6062  0.0256
 1236SOL    HW2 4716   0.853   2.482   3.742  1.7492 -1.8624 -0.7349
 1236SOL    HW3 4717   0.971   2.574   3.764  0.5643 -0.1954 -1.1310
 1236SOL    MW4 4718   0.897   2.554   3.723 -0.1079 -0.4057  0.2473
 1237SOL     OW 4719   2.842  -0.009   1.304 -0.2685  0.5291 -0.8158
 1237SOL    HW2 4720   2.809   0.039   1.381 -1.9578  0.8299 -1.6765
 1237SOL    HW3 4721   2.840  -0.101   1.331  0.2836  0.7167 -0.1049
 1237SOL    MW4 4722   2.837  -0.015   1.318 -0.4655  0.2934  0.2776
 1238SOL     OW 4723   3.396   6.110   3.162 -0.0146 -0.3448  0.0564
 1238SOL    HW2 4724   3.472   6.106   3.219 -1.8312 -0.3627  2.6854
 1238SOL    HW3 4725   3.321   6.117   3.222 -2.0941 -0.1980 -2.3556
 1238SOL    MW4 4726   3.396   6.111   3.177  0.1083  0.2560  0.4877
 1239SOL     OW 4727   1.731   0.031   3.140  0.2764  0.7796 -0.3135
 1239SOL    HW2 4728   1.730   0.075   3.055 -0.5825  1.0555 -0.1646
 1239SOL    HW3 4729   1.713  -0.061   3.120  1.1294  0.6498 -0.5281
 1239SOL    MW4 4730   1.729   0.025   3.126 -0.1067 -0.0453  0.0482
 1240SOL     OW 4731   3.159   1.832   5.517  0.2201 -0.8838 -0.3211
 1240SOL    HW2 4732   3.198   1.889   5.451 -0.4732  0.3824  0.3152
 1240SOL    HW3 4733   3.105   1.771   5.467 -1.0871  0.6924 -0.9143
 1240SOL    MW4 4734   3.157   1.831   5.502 -0.0795 -0.0990 -0.7604
 1241SOL     OW 4735   1.570   1.261   2.229  0.6532  0.1851 -0.2252
 1241SOL    HW2 4736   1.576   1.287   2.137  0.6133 -1.7577 -0.8229
 1241SOL    HW3 4737   1.477   1.273   2.252  1.1552  3.5403  0.5470
 1241SOL    MW4 4738   1.558   1.266   2.220  0.0458 -0.0674 -0.4402
 1242SOL     OW 4739   0.500   1.070   0.334  0.2054  0.6211  0.3828
 1242SOL    HW2 4740   0.559   1.144   0.320  1.5733 -0.3820  0.6404
 1242SOL    HW3 4741   0.510   1.049   0.427 -1.2601  0.9873  0.6515
 1242SOL    MW4 4742   0.509   1.077   0.344  0.3541 -0.0119  0.1196
 1243SOL     OW 4743   5.332   2.851   5.712 -0.4066 -0.2368 -0.2268
 1243SOL    HW2 4744   5.280   2.885   5.785  0.6321  0.1728  0.3328
 1243SOL    HW3 4745   5.329   2.756   5.725  0.3841 -0.1432  0.8019
 1243SOL    MW4 4746   5.325   2.843   5.724 -0.3257  0.6078  0.2706
 1244SOL     OW 4747   6.397   2.084   0.954  0.2277  0.1068  0.4675
 1244SOL    HW2 4748   6.320   2.058   1.005  0.2589 -0.0976  0.4112
 1244SOL    HW3 4749   6.427   2.003   0.912  0.3440  0.2279  0.3148
 1244SOL    MW4 4750   6.391   2.070   0.955  0.0670 -0.3525 -0.5406
 1245SOL     OW 4751   0.566   3.709   1.448 -0.2411 -0.2053 -0.4122
 1245SOL    HW2 4752   0.579   3.697   1.354 -1.3657  0.8496 -0.7354
 1245SOL    HW3 4753   0.539   3.801   1.456 -2.2593 -0.8446  0.6945
 1245SOL    MW4 4754   0.564   3.720   1.436 -0.0905 -0.5000 -0.4925
 1246SOL     OW 4755   5.632   3.264   3.343 -0.1984  0.5762  0.4284
 1246SOL    HW2 4756   5.674   3.232   3.263 -0.6844  0.0537  0.3802
 1246SOL    HW3 4757   5.538   3.257   3.326 -0.3086  0.1255  1.1765
 1246SOL    MW4 4758   5.625   3.259   3.330  0.6536  0.0761  0.0283
 1247SOL     OW 4759   3.555   1.965   1.959  0.0348 -0.2376  0.0408
 1247SOL    HW2 4760   3.466   1.983   1.989  0.4298 -0.5193  1.4491
 1247SOL    HW3 4761   3.564   2.018   1.880 -2.0417 -1.7192 -1.2855
 1247SOL    MW4 4762   3.544   1.974   1.953  0.2424 -0.2632 -0.0000
 1248SOL     OW 4763   1.257   0.288   3.255  0.3847  0.6669  0.0696
 1248SOL    HW2 4764   1.232   0.292   3.163  1.6074 -0.2572 -0.3311
 1248SOL    HW3 4765   1.301   0.204   3.265  1.2036  1.1922  1.2507
 1248SOL    MW4 4766   1.259   0.278   3.244 -0.0675  0.0892 -0.2289
 1249SOL     OW 4767   6.224   2.166   6.203 -0.2996 -0.2097  0.9791
 1249SOL    HW2 4768   6.165   2.103   6.245 -1.1589  0.5054  0.8778
 1249SOL    HW3 4769   6.176   2.249   6.207  1.2000  0.6562  1.9962
 1249SOL    MW4 4770   6.210   2.169   6.209  0.5383  0.3710  0.0298
 1250SOL     OW 4771   3.083   6.171   0.409 -0.1009  0.0781 -0.5197
 1250SOL    HW2 4772   3.131   6.251   0.430 -0.6823  0.5662 -0.9924
 1250SOL    HW3 4773   3.110   6.150   0.319  0.3944 -0.5192 -0.2376
 1250SOL    MW4 4774   3.093   6.179   0.400 -0.4972  0.8637 -0.3204
 1251SOL     OW 4775   1.746   5.463   2.070  0.0523 -0.3191  0.2371
 1251SOL    HW2 4776   1.814   5.505   2.123 -0.0445  0.3651 -0.1753
 1251SOL    HW3 4777   1.667   5.514   2.087  0.1214  0.1898 -0.9018
 1251SOL    MW4 4778   1.745   5.475   2.079  0.3063 -0.5185  0.2121
 1252SOL     OW 4779   0.318   0.330   5.907 -0.8724 -0.0795  0.5572
 1252SOL    HW2 4780   0.273   0.403   5.864 -0.7088 -0.7425 -0.7802
 1252SOL    HW3 4781   0.260   0.305   5.979 -1.3039  0.8540  0.5458
 1252SOL    MW4 4782   0.304   0.336   5.911  0.1380  0.3441 -0.2924
 1253SOL     OW 4783   2.835   0.405   0.592 -0.0984  0.3930  0.2888
 1253SOL    HW2 4784   2.880   0.453   0.523 -1.2672  1.4021  0.2046
 1253SOL    HW3 4785   2.839   0.463   0.668  0.2092 -0.2380  0.7643
 1253SOL    MW4 4786   2.842   0.419   0.593  0.3409 -0.2176  0.1727
 1254SOL     OW 4787   6.067   2.562   5.278  0.4809  0.5183  0.3140
 1254SOL    HW2 4788   6.034   2.515   5.355 -1.5186 -0.9686 -1.3445
 1254SOL    HW3 4789   6.134   2.505   5.242 -1.5562 -0.9460 -1.3800
 1254SOL    MW4 4790   6.072   2.548   5.283  0.0274 -0.0115  0.3419
 1255SOL     OW 4791   1.476   1.943   2.845  0.6373 -0.3834  0.3029
 1255SOL    HW2 4792   1.528   1.989   2.910 -0.0572  0.6719  0.1411
 1255SOL    HW3 4793   1.434   2.012   2.794  0.7559 -1.1794 -0.9430
 1255SOL    MW4 4794   1.477   1.958   2.847  0.5842 -0.6115  0.0902
 1256SOL     OW 4795   1.034   5.778   3.617  0.3504 -0.0680 -0.2469
 1256SOL    HW2 4796   1.052   5.689   3.644 -0.7392 -0.1825  0.1735
 1256SOL    HW3 4797   0.982   5.769   3.537  1.2446  0.2248 -0.8824
 1256SOL    MW4 4798   1.029   5.765   3.610 -0.1172  0.4698 -0.3907
 1257SOL     OW 4799   3.201   2.089   3.100  0.0343 -0.2824  0.0932
 1257SOL    HW2 4800   3.118   2.108   3.056  0.7395 -1.2594 -1.7803
 1257SOL    HW3 4801   3.268   2.128   3.044  0.8819  0.2037  1.4004
 1257SOL    MW4 4802   3.199   2.097   3.086  0.3017  0.7810  0.6658
 1258SOL     OW 4803   5.108   0.815   3.029 -0.4969  0.4631 -0.5272
 1258SOL    HW2 4804   5.032   0.757   3.032  0.2888 -0.5686  0.4645
 1258SOL    HW3 4805   5.100   0.862   2.946 -2.0996  0.2407 -0.5258
 1258SOL    MW4 4806   5.097   0.814   3.019  0.2142 -0.0989 -0.1040
 1259SOL     OW 4807   2.560   0.876   0.998 -0.2280  0.1324  0.6497
 1259SOL    HW2 4808   2.612   0.848   0.923  3.0486  2.0042  2.0490
 1259SOL    HW3 4809   2.545   0.796   1.048  1.4026 -0.4697  0.2202
 1259SOL    MW4 4810   2.565   0.862   0.995  0.0350 -0.2894  0.0216
 1260SOL     OW 4811   4.781   4.635   3.836  0.0348 -0.3598 -0.4002
 1260SOL    HW2 4812   4.691   4.611   3.859  0.2462 -1.5039 -0.7335
 1260SOL    HW3 4813   4.820   4.555   3.802  0.7565  0.4789 -1.6244
 1260SOL    MW4 4814   4.774   4.622   3.835 -0.1116  0.3355 -0.0685
 1261SOL     OW 4815   2.807   1.555   5.530 -0.3066  0.6665 -0.1942
 1261SOL    HW2 4816   2.850   1.549   5.615 -0.3798  3.2566  0.1102
 1261SOL    HW3 4817   2.713   1.555   5.551 -0.3492  0.1591 -0.3818
 1261SOL    MW4 4818   2.800   1.555   5.544 -0.1003  0.3892 -0.1172
 1262SOL     OW 4819   3.263   0.356   5.552 -0.3674 -0.1606  0.0219
 1262SOL    HW2 4820   3.216   0.426   5.598 -0.9731  0.0155 -0.8389
 1262SOL    HW3 4821   3.355   0.382   5.556 -0.7838  2.0574 -2.4804
 1262SOL    MW4 4822   3.269   0.369   5.559 -0.3567  0.0040 -0.1027
 1263SOL     OW 4823   1.907   4.507   1.046  0.3098  0.4653  0.3845
 1263SOL    HW2 4824   1.906   4.583   0.988 -2.0027  1.3584  1.4470
 1263SOL    HW3 4825   1.845   4.529   1.115 -0.7668 -2.5383  0.5289
 1263SOL    MW4 4826   1.898   4.520   1.048 -0.3254 -0.3105 -0.3535
 1264SOL     OW 4827   3.528   2.138   1.068 -0.6081  0.1292  0.5667
 1264SOL    HW2 4828   3.478   2.219   1.057  1.3764  1.1063 -2.2501
 1264SOL    HW3 4829   3.619   2.167   1.079  0.0577 -1.6880  0.2548
 1264SOL    MW4 4830   3.534   2.152   1.068 -0.3159  0.3438 -0.3149
 1265SOL     OW 4831   2.932   4.757   5.217  0.2553  0.0603  0.3168
 1265SOL    HW2 4832   2.919   4.692   5.147  0.9224  1.2650 -0.9624
 1265SOL    HW3 4833   2.986   4.712   5.282  0.9855 -0.5713 -0.7047
 1265SOL    MW4 4834   2.937   4.742   5.216  0.4908 -0.1314  0.2460
 1266SOL     OW 4835   1.004   1.912   2.015 -0.6711  0.3884 -0.4489
 1266SOL    HW2 4836   1.096   1.938   2.018 -0.9094  1.3204  2.9791
 1266SOL    HW3 4837   0.960   1.983   1.968  0.1415  0.7082 -0.7354
 1266SOL    MW4 4838   1.010   1.924   2.009 -0.2301 -0.7236  0.5195
 1267SOL     OW 4839   1.439   1.096   0.108  0.0973 -0.3064 -0.1724
 1267SOL    HW2 4840   1.531   1.069   0.100 -0.0556 -0.6660 -0.7756
 1267SOL    HW3 4841   1.415   1.070   0.197  0.0074 -2.0665 -0.6703
 1267SOL    MW4 4842   1.448   1.089   0.119  0.4545  0.1929  0.2664
 1268SOL     OW 4843   1.550   2.788   5.139 -0.1452  0.2850 -0.1143
 1268SOL    HW2 4844   1.624   2.835   5.099 -1.1585  0.3129 -2.0969
 1268SOL    HW3 4845   1.580   2.697   5.145  0.2499  0.3905 -0.3966
 1268SOL    MW4 4846   1.564   2.782   5.134  0.1554  0.9267  1.0002
 1269SOL     OW 4847   2.865   3.111   4.362  0.1000 -0.3905  0.5680
 1269SOL    HW2 4848   2.893   3.023   4.337  3.6775  0.8678 -0.4884
 1269SOL    HW3 4849   2.801   3.136   4.295  0.0398 -1.6806  0.1209
 1269SOL    MW4 4850   2.860   3.103   4.350  0.4504 -0.5302 -0.4732
 1270SOL     OW 4851   5.168   5.630   6.117  0.5148  0.3497  0.5215
 1270SOL    HW2 4852   5.121   5.686   6.055 -0.3310  0.4185  1.2026
 1270SOL    HW3 4853   5.112   5.554   6.129  0.3784  0.6040  1.6286
 1270SOL    MW4 4854   5.154   5.628   6.110  0.3853  0.4230 -0.0205
 1271SOL     OW 4855   2.517   6.194   5.554  0.3850 -0.0945 -0.3538
 1271SOL    HW2 4856   2.539   6.156   5.468 -0.1265 -1.9767  0.3001
 1271SOL    HW3 4857   2.422   6.193   5.556  0.3558  1.3989 -0.3577
 1271SOL    MW4 4858   2.508   6.189   5.543 -0.5263 -0.1908  0.2607
 1272SOL     OW 4859   4.476   3.325   4.608  0.9515  0.3668 -0.2813
 1272SOL    HW2 4860   4.567   3.296   4.604  1.1501  0.9432 -0.0776
 1272SOL    HW3 4861   4.480   3.413   4.647  0.2768  0.2330  0.1181
 1272SOL    MW4 4862   4.488   3.333   4.613  0.3307  0.3342  0.5667
 1273SOL     OW 4863   1.489   2.102   2.135 -0.0089 -0.0203  0.0366
 1273SOL    HW2 4864   1.503   2.085   2.228 -2.8438 -1.1467  0.3324
 1273SOL    HW3 4865   1.538   2.183   2.119  2.8429 -1.2491  1.7831
 1273SOL    MW4 4866   1.498   2.111   2.145 -0.6833  0.9349 -0.2302
 1274SOL     OW 4867   0.926   5.842   3.070 -0.1548  0.9489  0.1977
 1274SOL    HW2 4868   0.847   5.798   3.102 -0.5956  0.1383 -1.8309
 1274SOL    HW3 4869   0.971   5.775   3.018  0.6286  2.0891 -0.6367
 1274SOL    MW4 4870   0.921   5.827   3.067  0.0502 -0.4916 -0.0378
 1275SOL     OW 4871   3.455   2.870   3.651  0.0415 -0.2734 -0.7056
 1275SOL    HW2 4872   3.416   2.895   3.735 -1.1221  1.3010 -1.6554
 1275SOL    HW3 4873   3.516   2.941   3.631  0.9565 -1.0759 -0.7986
 1275SOL    MW4 4874   3.458   2.883   3.660  0.3535 -0.8810  0.2222
 1276SOL     OW 4875   0.809   5.419   5.890 -0.2202 -0.2189 -0.2323
 1276SOL    HW2 4876   0.808   5.452   5.979  2.0829 -0.3033 -0.1300
 1276SOL    HW3 4877   0.810   5.497   5.834 -0.3679 -0.1627 -0.1560
 1276SOL    MW4 4878   0.809   5.434   5.894  0.3922  0.2698  0.0220
 1277SOL     OW 4879   0.364   2.194   0.021  0.3116 -0.6572 -0.5927
 1277SOL    HW2 4880   0.408   2.114  -0.006  1.7273  0.0999 -0.6656
 1277SOL    HW3 4881   0.314   2.169   0.099  1.2968 -1.4591 -0.1963
 1277SOL    MW4 4882   0.363   2.180   0.028 -0.1947  0.2512  0.3170
 1278SOL     OW 4883   1.659   2.323   2.143 -0.4608 -0.1354  0.9796
 1278SOL    HW2 4884   1.696   2.393   2.088  0.8680  0.1505  2.1917
 1278SOL    HW3 4885   1.733   2.266   2.163 -1.5900 -2.1873 -0.3002
 1278SOL    MW4 4886   1.674   2.325   2.138  0.0510 -0.0060 -0.3725
 1279SOL     OW 4887   2.625   3.802   4.258 -0.2079  0.4519  0.0734
 1279SOL    HW2 4888   2.616   3.891   4.291 -0.6650  0.3717  0.1744
 1279SOL    HW3 4889   2.674   3.757   4.327 -1.6339  0.1451  0.9540
 1279SOL    MW4 4890   2.630   3.808   4.272  0.3991 -0.1622 -0.0820
 1280SOL     OW 4891   5.621   5.296   1.063 -0.4147  0.3456 -0.7810
 1280SOL    HW2 4892   5.646   5.293   0.971 -1.3978 -1.4581 -1.0398
 1280SOL    HW3 4893   5.702   5.278   1.111 -0.0205  0.6979 -1.3013
 1280SOL    MW4 4894   5.635   5.294   1.057 -0.0655  0.4824  0.0354
 1281SOL     OW 4895   2.742   1.019   6.183 -0.4269 -0.1655 -0.2731
 1281SOL    HW2 4896   2.682   1.049   6.252 -0.3203 -0.8969  0.1540
 1281SOL    HW3 4897   2.828   1.051   6.210 -0.2784 -1.0086  0.2950
 1281SOL    MW4 4898   2.745   1.027   6.196  0.9830  0.2683 -0.4960
 1282SOL     OW 4899   1.075   5.540   0.037 -0.1045  0.1231  0.3241
 1282SOL    HW2 4900   0.991   5.506   0.006  0.2335 -2.0074  1.5533
 1282SOL    HW3 4901   1.067   5.540   0.132  0.7772  1.3663  0.4190
 1282SOL    MW4 4902   1.063   5.535   0.046  0.2867  0.1233 -0.3736
 1283SOL     OW 4903   6.297   3.283   1.485 -0.6207 -0.1131  0.0170
 1283SOL    HW2 4904   6.358   3.235   1.430 -1.4548 -1.1733 -0.0250
 1283SOL    HW3 4905   6.293   3.234   1.566 -2.2008 -0.6943 -0.3714
 1283SOL    MW4 4906   6.304   3.270   1.488  0.0509  0.3606  0.1549
 1284SOL     OW 4907   1.458   1.478   5.290 -0.7091 -0.0251 -0.2372
 1284SOL    HW2 4908   1.534   1.468   5.347 -1.6730  0.5138  1.2292
 1284SOL    HW3 4909   1.477   1.555   5.237  0.4533 -0.8718 -1.0950
 1284SOL    MW4 4910   1.470   1.487   5.291  0.2754  0.0883 -0.3676
 1285SOL     OW 4911   1.414   3.919   1.752 -0.3333 -0.0714  0.1518
 1285SOL    HW2 4912   1.390   3.990   1.692  0.2863  0.1002  0.1033
 1285SOL    HW3 4913   1.414   3.840   1.697  1.1226  0.2123 -0.2999
 1285SOL    MW4 4914   1.411   3.918   1.737 -0.5187 -0.2565  0.0344
 1286SOL     OW 4915   5.975   1.054   1.975  0.0543  0.0888  0.4939
 1286SOL    HW2 4916   5.933   1.135   2.002  1.9931  1.8112 -1.2964
 1286SOL    HW3 4917   6.067   1.066   1.997  0.3364 -1.7799  0.4781
 1286SOL    MW4 4918   5.982   1.066   1.982  0.1127  0.1940  0.3362
 1287SOL     OW 4919   2.826   0.179   4.763  0.4529  0.2437  0.2647
 1287SOL    HW2 4920   2.829   0.173   4.859  2.1281 -0.6412  0.2038
 1287SOL    HW3 4921   2.913   0.150   4.735 -0.3389 -0.4982 -1.5783
 1287SOL    MW4 4922   2.838   0.174   4.772  0.2882 -0.7261 -0.1983
 1288SOL     OW 4923   3.903   3.316   6.367 -0.2309  0.3617  0.2846
 1288SOL    HW2 4924   3.854   3.317   6.285  0.3504  1.0883 -0.0697
 1288SOL    HW3 4925   3.878   3.234   6.409 -0.2779 -0.1842 -0.7701
 1288SOL    MW4 4926   3.893   3.306   6.362  0.0753 -0.3209  0.0403
 1289SOL     OW 4927   0.171   0.236   2.014 -0.3286 -0.4256 -0.0672
 1289SOL    HW2 4928   0.083   0.214   2.044 -0.8456  0.1127 -1.0961
 1289SOL    HW3 4929   0.209   0.153   1.987 -1.4080 -0.4279 -1.7811
 1289SOL    MW4 4930   0.164   0.222   2.014  0.1294 -0.2683 -0.4033
 1290SOL     OW 4931   5.531   1.604   5.800  0.4602 -0.4263 -0.3109
 1290SOL    HW2 4932   5.437   1.594   5.788  0.3859 -1.1115  0.7102
 1290SOL    HW3 4933   5.542   1.692   5.836  0.1968 -0.3988 -0.2999
 1290SOL    MW4 4934   5.520   1.614   5.803  0.0641  0.0558  0.0468
 1291SOL     OW 4935   4.876   2.048   1.022  0.0868 -0.5691  0.0036
 1291SOL    HW2 4936   4.877   2.035   0.928 -0.7520 -1.1767  0.0744
 1291SOL    HW3 4937   4.909   1.966   1.059  0.0735 -0.4645  0.2554
 1291SOL    MW4 4938   4.880   2.035   1.015  0.4583  0.0674  0.0281
 1292SOL     OW 4939   2.373   3.060   1.388 -0.3911 -0.2230  0.2294
 1292SOL    HW2 4940   2.368   2.982   1.333  0.3952 -0.0558 -0.0856
 1292SOL    HW3 4941   2.283   3.074   1.418 -0.6943 -0.7433 -0.4226
 1292SOL    MW4 4942   2.360   3.052   1.384  0.0248 -0.3615  0.6099
 1293SOL     OW 4943   0.033   0.163   3.077  0.1564  0.3457 -0.1672
 1293SOL    HW2 4944  -0.046   0.121   3.112  0.0476 -1.0591 -1.9961
 1293SOL    HW3 4945   0.011   0.186   2.987  1.7068  0.2958 -0.5907
 1293SOL    MW4 4946   0.020   0.161   3.070 -0.2157  1.0094  0.1657
 1294SOL     OW 4947   5.199   5.143   0.196  0.1669  0.0009  0.0498
 1294SOL    HW2 4948   5.104   5.132   0.187  0.2000 -2.1936  1.5499
 1294SOL    HW3 4949   5.225   5.192   0.119 -2.3419  1.7821  0.2106
 1294SOL    MW4 4950   5.190   5.148   0.185  0.4838  0.5925 -0.1014
 1295SOL     OW 4951   1.073   0.592   1.262  0.2095  0.1796  0.1550
 1295SOL    HW2 4952   0.983   0.617   1.243  0.5872  2.6760  1.2264
 1295SOL    HW3 4953   1.113   0.576   1.176 -0.8031  0.7278 -0.4323
 1295SOL    MW4 4954   1.067   0.593   1.248  0.1888 -0.6321  0.4962
 1296SOL     OW 4955   5.014   0.006   0.540 -0.3782  0.4130  0.3092
 1296SOL    HW2 4956   5.049   0.049   0.618  0.8164 -0.2232  0.1418
 1296SOL    HW3 4957   5.040  -0.085   0.549 -0.5194  0.2646 -0.6702
 1296SOL    MW4 4958   5.022  -0.000   0.551 -0.1652  0.7817 -0.6956
 1297SOL     OW 4959   5.358   3.400   0.546  0.4039  0.1371 -0.1636
 1297SOL    HW2 4960   5.313   3.379   0.465  0.9616 -1.1703 -0.1551
 1297SOL    HW3 4961   5.442   3.438   0.518  1.4920 -2.2072 -0.2721
 1297SOL    MW4 4962   5.363   3.402   0.531  0.0630 -0.4727 -0.1945
 1298SOL     OW 4963   4.642   3.033   4.017 -0.8997 -0.1454  0.5122
 1298SOL    HW2 4964   4.666   3.078   4.098 -1.2831  2.0022 -0.5191
 1298SOL    HW3 4965   4.581   2.965   4.046  0.9893 -1.2046  2.3145
 1298SOL    MW4 4966   4.637   3.030   4.032  0.0509 -0.6013  0.1947
 1299SOL     OW 4967   5.996   2.986   6.134  0.0380 -0.5539  0.4761
 1299SOL    HW2 4968   5.972   3.009   6.044 -2.1604 -2.2921  0.4969
 1299SOL    HW3 4969   6.087   2.958   6.129  0.3636  0.6782 -0.9368
 1299SOL    MW4 4970   6.005   2.985   6.122  0.6519  0.2672 -0.2680
 1300SOL     OW 4971   5.370   4.426   4.271 -0.2386  0.3376  0.5691
 1300SOL    HW2 4972   5.291   4.410   4.323 -0.4273  1.1791  0.5522
 1300SOL    HW3 4973   5.442   4.406   4.330 -0.4468 -1.1578  0.3571
 1300SOL    MW4 4974   5.369   4.421   4.285  0.7129  0.2652 -0.2646
 1301SOL     OW 4975   0.343   3.236   1.741 -0.3601 -0.0348  0.5635
 1301SOL    HW2 4976   0.350   3.163   1.679 -0.1599  0.1502  0.3713
 1301SOL    HW3 4977   0.361   3.314   1.689  0.8346  0.0439  1.0681
 1301SOL    MW4 4978   0.346   3.236   1.726 -0.2473  0.4974 -0.6143
 1302SOL     OW 4979   0.519   6.152   2.966 -0.3095 -0.3669 -0.4253
 1302SOL    HW2 4980   0.449   6.146   2.901 -1.1978 -1.8938  0.6033
 1302SOL    HW3 4981   0.487   6.215   3.030 -0.8061 -1.1451  0.1003
 1302SOL    MW4 4982   0.505   6.159   2.966 -0.3819 -0.2057  0.2684
 1303SOL     OW 4983   4.206   5.377   5.493 -0.9901 -0.0509 -0.5077
 1303SOL    HW2 4984   4.285   5.386   5.546 -0.1640 -1.5858 -1.4471
 1303SOL    HW3 4985   4.164   5.463   5.499  0.4062  0.5921  0.5254
 1303SOL    MW4 4986   4.211   5.390   5.501  0.1896 -0.0885  0.1955
 1304SOL     OW 4987   0.550   1.044   5.866  1.2039  0.1099  0.1521
 1304SOL    HW2 4988   0.631   1.006   5.833  1.2243 -1.4550  1.8868
 1304SOL    HW3 4989   0.483   1.016   5.804  1.8755  0.9947 -1.0136
 1304SOL    MW4 4990   0.552   1.036   5.853 -0.0585  0.3243 -0.5165
 1305SOL     OW 4991   5.383   4.162   2.448  0.0271 -0.2239 -0.1516
 1305SOL    HW2 4992   5.355   4.075   2.477 -1.2089  0.5714  1.2546
 1305SOL    HW3 4993   5.352   4.168   2.358 -2.3617 -0.3011  0.5813
 1305SOL    MW4 4994   5.375   4.151   2.440  0.3301  0.2428 -0.3091
 1306SOL     OW 4995   2.413   2.828   5.814 -0.4816 -0.2954 -0.2747
 1306SOL    HW2 4996   2.318   2.820   5.829 -0.1778 -0.1510  1.9195
 1306SOL    HW3 4997   2.427   2.922   5.804 -0.5989 -0.3487 -1.0577
 1306SOL    MW4 4998   2.402   2.839   5.814  0.3042 -0.0717 -0.5053
 1307SOL     OW 4999   5.143   3.048   3.655  0.1712 -0.0820 -0.6502
 1307SOL    HW2 5000   5.202   2.976   3.677  0.4264  0.5406  0.8194
 1307SOL    HW3 5001   5.063   3.006   3.625 -0.5316 -1.0959  2.3315
 1307SOL    MW4 5002   5.140   3.033   3.654  0.1122 -0.3571  0.2076
 1308SOL     OW 5003   2.393   0.395   4.516 -0.1256  0.2795 -0.2183
 1308SOL    HW2 5004   2.301   0.385   4.489  0.0024  1.9009 -1.4282
 1308SOL    HW3 5005   2.396   0.356   4.603 -1.7055 -0.7952 -0.5932
 1308SOL    MW4 5006   2.381   0.389   4.524 -0.0621  0.3127 -0.0550
 1309SOL     OW 5007   2.417   2.790   3.974 -0.0176 -0.2396 -0.5755
 1309SOL    HW2 5008   2.347   2.825   4.030 -0.0997 -1.0528 -0.1546
 1309SOL    HW3 5009   2.495   2.840   3.999  0.0826 -0.9776  0.7105
 1309SOL    MW4 5010   2.418   2.801   3.985  0.1796 -0.0746 -0.1362
 1310SOL     OW 5011   0.070   2.579   4.796 -0.1018 -0.6099  0.0602
 1310SOL    HW2 5012  -0.000   2.604   4.856 -0.2295 -1.4932  0.2948
 1310SOL    HW3 5013   0.067   2.645   4.727 -1.7871 -1.1298 -0.4258
 1310SOL    MW4 5014   0.060   2.591   4.795 -0.2859  0.2738 -0.4847
 1311SOL     OW 5015   0.919   2.767   4.555 -0.3174 -0.1767 -0.2188
 1311SOL    HW2 5016   0.954   2.692   4.603 -1.2021 -0.9070 -0.6833
 1311SOL    HW3 5017   0.831   2.779   4.591  0.0236  1.0290  0.2669
 1311SOL    MW4 5018   0.912   2.759   4.566  0.6243 -0.2306  0.2127
 1312SOL     OW 5019   5.749   4.561   4.297  0.3360 -0.5091 -0.2294
 1312SOL    HW2 5020   5.692   4.488   4.323 -0.3616  0.3165  0.6644
 1312SOL    HW3 5021   5.721   4.634   4.353 -0.5684  1.1188 -2.6404
 1312SOL    MW4 5022   5.737   4.561   4.308  0.0665 -0.8587  0.3987
 1313SOL     OW 5023   0.281   5.231   4.363  0.0854 -0.5470  0.3235
 1313SOL    HW2 5024   0.207   5.211   4.306  1.1288 -0.2001 -1.2024
 1313SOL    HW3 5025   0.257   5.314   4.405 -0.6741 -0.7927  0.4054
 1313SOL    MW4 5026   0.268   5.239   4.361 -0.5317 -0.8993 -0.0552
 1314SOL     OW 5027   1.960   5.772   6.155 -0.3952  0.0272 -0.6157
 1314SOL    HW2 5028   2.040   5.757   6.104  0.9069 -2.4114  1.8135
 1314SOL    HW3 5029   1.967   5.862   6.185  1.6520 -0.2037 -0.2589
 1314SOL    MW4 5030   1.972   5.782   6.152  0.1857  0.1078 -0.6025
 1315SOL     OW 5031   1.066   1.730   1.396  0.1520 -0.0460  0.6143
 1315SOL    HW2 5032   1.014   1.718   1.476  2.0291 -1.8651  1.6722
 1315SOL    HW3 5033   1.129   1.799   1.419  0.7849 -0.6688  0.7946
 1315SOL    MW4 5034   1.067   1.738   1.410  0.4232 -0.1148  0.1504
 1316SOL     OW 5035   1.229   3.557   0.550 -0.1514 -0.3169  0.3786
 1316SOL    HW2 5036   1.178   3.514   0.619  0.0167 -2.2097 -0.6147
 1316SOL    HW3 5037   1.163   3.595   0.492 -0.3406 -0.3405  0.5745
 1316SOL    MW4 5038   1.213   3.556   0.552 -0.2092  0.7994  0.3200
 1317SOL     OW 5039   2.548   5.529   3.925 -0.0393 -0.3282  0.4577
 1317SOL    HW2 5040   2.539   5.483   3.842 -0.9645  0.6718 -0.0221
 1317SOL    HW3 5041   2.492   5.479   3.985 -0.6114 -0.1577  0.0781
 1317SOL    MW4 5042   2.539   5.516   3.922 -0.3164 -0.5994 -0.2337
 1318SOL     OW 5043   5.720   5.848   0.642 -0.3001 -0.1653 -0.3791
 1318SOL    HW2 5044   5.724   5.755   0.665 -1.4719 -0.0823  0.2569
 1318SOL    HW3 5045   5.719   5.848   0.546 -0.0944 -0.8032 -0.3870
 1318SOL    MW4 5046   5.720   5.836   0.632  0.2669  0.0562  0.0946
 1319SOL     OW 5047   4.378   1.495   6.221  0.3052 -0.2941 -0.4456
 1319SOL    HW2 5048   4.418   1.513   6.136 -0.6485 -0.6449 -0.9803
 1319SOL    HW3 5049   4.322   1.571   6.238  1.6011  0.4750  0.5773
 1319SOL    MW4 5050   4.376   1.508   6.212 -0.1215 -0.6374 -0.4466
 1320SOL     OW 5051   5.850   2.005   3.874  0.5068 -0.3072  0.1647
 1320SOL    HW2 5052   5.853   1.970   3.963 -3.0450  1.3129  1.1027
 1320SOL    HW3 5053   5.786   1.950   3.828  0.6192  0.2341 -0.6736
 1320SOL    MW4 5054   5.842   1.993   3.879 -0.5576 -0.8724 -0.4143
 1321SOL     OW 5055   5.483   4.186   5.381 -0.3106 -0.0232 -0.2835
 1321SOL    HW2 5056   5.458   4.243   5.309  0.8761  0.2117 -0.5325
 1321SOL    HW3 5057   5.559   4.229   5.421 -0.1592 -0.7984  0.3007
 1321SOL    MW4 5058   5.490   4.199   5.377  0.2368 -0.0133 -0.0092
 1322SOL     OW 5059   3.969   1.225   5.370  0.2036  0.5668 -0.1662
 1322SOL    HW2 5060   4.015   1.212   5.287  1.4786  0.7102  0.5110
 1322SOL    HW3 5061   3.989   1.147   5.422 -1.2577  0.0830 -0.2619
 1322SOL    MW4 5062   3.978   1.213   5.366  0.3539  0.1428  0.5410
 1323SOL     OW 5063   5.710   4.609   2.192  0.2243  0.4199  0.8607
 1323SOL    HW2 5064   5.719   4.562   2.275  0.5934 -1.0331  0.0341
 1323SOL    HW3 5065   5.792   4.593   2.146 -0.8027 -0.6831 -0.6985
 1323SOL    MW4 5066   5.722   4.601   2.196  0.0582  0.0202  0.2390
 1324SOL     OW 5067   1.826   4.528   5.653 -0.0651 -0.0983 -0.3729
 1324SOL    HW2 5068   1.893   4.474   5.610 -0.9567 -0.7459 -0.9733
 1324SOL    HW3 5069   1.792   4.583   5.583  0.7410  1.1873  0.2083
 1324SOL    MW4 5070   1.831   4.528   5.638  0.0263  0.0271 -0.0783
 1325SOL     OW 5071   0.283   3.554   0.526 -1.4790  0.5376  0.1290
 1325SOL    HW2 5072   0.217   3.486   0.513 -0.0889 -1.1241  1.4190
 1325SOL    HW3 5073   0.274   3.579   0.618 -0.5352  0.5169  0.2332
 1325SOL    MW4 5074   0.273   3.548   0.536  0.0989 -0.4621 -0.1043
 1326SOL     OW 5075   5.324   5.963   5.683 -0.0012  0.4913 -0.0995
 1326SOL    HW2 5076   5.344   5.905   5.609 -0.1940  0.4236 -0.0992
 1326SOL    HW3 5077   5.403   5.961   5.737 -0.3475 -0.5438  0.4094
 1326SOL    MW4 5078   5.337   5.955   5.680  0.1456  0.1305 -0.7554
 1327SOL     OW 5079   5.868   0.104   2.105 -0.1389  0.1245  0.6833
 1327SOL    HW2 5080   5.796   0.164   2.087  0.7770  0.8451 -0.7949
 1327SOL    HW3 5081   5.885   0.114   2.199 -0.2636  1.9186  0.5474
 1327SOL    MW4 5082   5.861   0.113   2.115  0.0960 -0.4990 -0.4766
 1328SOL     OW 5083   4.973   1.239   3.561  0.9988  0.3769  0.8869
 1328SOL    HW2 5084   4.900   1.187   3.596  2.7714 -3.4585 -0.4767
 1328SOL    HW3 5085   5.050   1.204   3.606  2.4673  0.9070 -1.1179
 1328SOL    MW4 5086   4.973   1.227   3.572  0.0462 -0.1535 -0.4144
 1329SOL     OW 5087   3.512   0.559   2.502 -0.1748  0.3498 -0.1803
 1329SOL    HW2 5088   3.430   0.559   2.550 -0.5611  0.3268 -0.8249
 1329SOL    HW3 5089   3.579   0.537   2.567 -0.8664 -1.1907  0.0439
 1329SOL    MW4 5090   3.510   0.556   2.517  0.1475 -0.3696  0.0278
 1330SOL     OW 5091   6.080   2.034   4.165 -0.0932 -0.4688 -0.1652
 1330SOL    HW2 5092   6.111   1.956   4.211 -1.4690  0.2962  2.2263
 1330SOL    HW3 5093   6.045   2.091   4.234 -1.5385  1.1380 -2.0833
 1330SOL    MW4 5094   6.079   2.031   4.180 -0.7210  0.0951 -0.0338
 1331SOL     OW 5095   0.760   5.372   1.914 -0.3414  0.2207  0.0347
 1331SOL    HW2 5096   0.780   5.279   1.901  0.7095  0.1455  1.8219
 1331SOL    HW3 5097   0.673   5.372   1.954  0.4489 -0.1944  1.8902
 1331SOL    MW4 5098   0.751   5.359   1.918 -0.1628 -0.0866 -0.0778
 1332SOL     OW 5099   2.578   0.024   1.660 -0.5434 -0.3357  0.2645
 1332SOL    HW2 5100   2.646   0.078   1.620 -1.1562  0.5330  0.3696
 1332SOL    HW3 5101   2.501   0.038   1.605 -0.4789 -1.8256 -0.2451
 1332SOL    MW4 5102   2.577   0.033   1.648  0.4108  0.1207 -0.0337
 1333SOL     OW 5103   1.738   4.324   3.507  0.2287  0.5598  0.6447
 1333SOL    HW2 5104   1.730   4.353   3.597  0.9782  0.9710  0.5886
 1333SOL    HW3 5105   1.824   4.282   3.503 -0.4566 -0.8692  0.4991
 1333SOL    MW4 5106   1.748   4.323   3.518  0.6092  0.5488 -0.0507
 1334SOL     OW 5107   1.788   0.292   3.512  0.3589  0.2800  0.1048
 1334SOL    HW2 5108   1.792   0.387   3.505  2.0634  0.1528 -1.5823
 1334SOL    HW3 5109   1.735   0.264   3.437  1.8594 -0.1534 -0.8617
 1334SOL    MW4 5110   1.782   0.301   3.501  0.0713  0.0227  0.2180
 1335SOL     OW 5111   5.549   4.296   0.172  0.2519 -0.6355  0.3012
 1335SOL    HW2 5112   5.460   4.330   0.172  0.9953  1.4349 -0.0661
 1335SOL    HW3 5113   5.551   4.234   0.099 -0.8436 -0.5731  0.2058
 1335SOL    MW4 5114   5.538   4.292   0.162  0.1923 -0.1133 -0.1912
 1336SOL     OW 5115   1.947   4.541   4.431  0.4449  0.0361 -0.3847
 1336SOL    HW2 5116   1.871   4.599   4.431 -1.4816 -2.2924  1.4104
 1336SOL    HW3 5117   1.935   4.486   4.354  0.7757  0.1684 -0.5344
 1336SOL    MW4 5118   1.935   4.542   4.421  0.0086  0.0712  0.4021
 1337SOL     OW 5119   1.744   0.911   1.716  0.1142  0.3115 -0.5890
 1337SOL    HW2 5120   1.668   0.939   1.766  0.5295 -0.2757  0.4141
 1337SOL    HW3 5121   1.711   0.897   1.627 -0.8028  0.6904 -0.3179
 1337SOL    MW4 5122   1.730   0.913   1.711  0.0172 -0.7502  0.3480
 1338SOL     OW 5123   1.519   4.010   4.999 -0.0517 -0.3486 -0.3641
 1338SOL    HW2 5124   1.457   4.083   4.997  0.9684  0.5591  0.1072
 1338SOL    HW3 5125   1.507   3.971   5.086  0.7851  0.5127  0.1539
 1338SOL    MW4 5126   1.509   4.015   5.010  0.0198  0.2242  0.3383
 1339SOL     OW 5127   3.272   3.293   2.939  0.2154 -0.0931  0.0752
 1339SOL    HW2 5128   3.246   3.253   3.022 -0.4943 -0.7077 -0.4277
 1339SOL    HW3 5129   3.364   3.314   2.951  0.4511 -1.3084  0.5990
 1339SOL    MW4 5130   3.280   3.290   2.952  0.2266 -0.2093  0.3712
 1340SOL     OW 5131   0.489   0.806   3.189  0.1546 -0.5105  0.3293
 1340SOL    HW2 5132   0.444   0.724   3.208  2.2472 -1.5710  0.9472
 1340SOL    HW3 5133   0.573   0.799   3.234  0.5965  1.7780 -0.0072
 1340SOL    MW4 5134   0.494   0.794   3.197 -0.1440  0.1332  0.1597
 1341SOL     OW 5135   4.817   0.634   1.262 -0.6714 -0.2885 -0.0708
 1341SOL    HW2 5136   4.819   0.552   1.312 -3.1561 -0.4739 -0.1282
 1341SOL    HW3 5137   4.888   0.626   1.199  1.3914 -0.8405  2.1780
 1341SOL    MW4 5138   4.826   0.622   1.260  0.2181  0.3499  0.2144
 1342SOL     OW 5139   5.121   2.955   4.986 -0.0806  0.0288  0.1646
 1342SOL    HW2 5140   5.108   2.885   4.923  1.1796 -0.8158  0.7930
 1342SOL    HW3 5141   5.042   2.953   5.040  0.3124 -1.5826  0.7621
 1342SOL    MW4 5142   5.109   2.945   4.985  0.2802 -0.7229 -0.2928
 1343SOL     OW 5143   4.250   4.747   1.504 -0.0420 -0.8734 -0.0495
 1343SOL    HW2 5144   4.283   4.757   1.594  0.3857  1.2599 -0.3932
 1343SOL    HW3 5145   4.155   4.737   1.514 -0.0608 -0.1301  0.6355
 1343SOL    MW4 5146   4.242   4.747   1.518 -0.0511 -1.0858 -0.3323
 1344SOL     OW 5147   2.996   2.067   3.863 -0.8957 -0.1649  0.2199
 1344SOL    HW2 5148   3.092   2.070   3.864 -0.9148  0.5508  1.3488
 1344SOL    HW3 5149   2.970   2.148   3.820 -0.9985 -0.0190  0.5529
 1344SOL    MW4 5150   3.006   2.078   3.858  0.4856  0.1344 -0.3671
 1345SOL     OW 5151   2.600   0.349   4.340 -0.4091  0.3492 -0.4516
 1345SOL    HW2 5152   2.518   0.346   4.390 -0.6394  1.0260 -0.7820
 1345SOL    HW3 5153   2.621   0.257   4.323 -1.0786  0.1685 -0.3359
 1345SOL    MW4 5154   2.592   0.336   4.345 -0.4077  0.7500 -0.2031
 1346SOL     OW 5155   1.453   3.859   5.212 -0.2166 -0.5239  0.3076
 1346SOL    HW2 5156   1.412   3.773   5.222  0.0453 -0.5012  1.6637
 1346SOL    HW3 5157   1.413   3.913   5.279 -0.0663  0.3135 -0.2609
 1346SOL    MW4 5158   1.442   3.855   5.222 -0.9036 -0.2523 -0.3851
 1347SOL     OW 5159   4.785   4.785   3.230  0.2499  0.0682  0.0149
 1347SOL    HW2 5160   4.824   4.733   3.299  0.5912 -0.2238 -0.3897
 1347SOL    HW3 5161   4.737   4.722   3.177 -0.0957  0.3044  0.0464
 1347SOL    MW4 5162   4.784   4.770   3.232  0.0714 -0.2544 -0.2818
 1348SOL     OW 5163   0.469   5.592   5.473  0.5607  0.3374  0.2545
 1348SOL    HW2 5164   0.415   5.604   5.396 -0.2166  1.3468  0.9307
 1348SOL    HW3 5165   0.425   5.524   5.523 -0.2837  1.3635  0.9466
 1348SOL    MW4 5166   0.456   5.585   5.470 -0.5222  0.7320 -0.1435
 1349SOL     OW 5167   3.236   1.437   3.120 -0.1693  0.3464  0.5660
 1349SOL    HW2 5168   3.181   1.368   3.156  0.4249 -0.0036  0.7972
 1349SOL    HW3 5169   3.235   1.422   3.025  2.6773 -2.0789  0.7846
 1349SOL    MW4 5170   3.229   1.426   3.112 -0.3651 -0.0794 -0.4036
 1350SOL     OW 5171   3.602   1.216   5.963  0.0580  0.4971 -0.5467
 1350SOL    HW2 5172   3.610   1.295   6.018 -0.3833  0.0904  0.1190
 1350SOL    HW3 5173   3.527   1.234   5.906 -0.1762  0.4798 -0.2481
 1350SOL    MW4 5174   3.593   1.229   5.963  0.3861  0.3207  0.7124
 1351SOL     OW 5175   1.436   6.011   5.568  0.0118 -0.1464 -0.4859
 1351SOL    HW2 5176   1.393   6.011   5.654  0.0115 -0.5033 -0.4822
 1351SOL    HW3 5177   1.370   6.046   5.509  0.0427  0.1826 -0.3245
 1351SOL    MW4 5178   1.421   6.016   5.572  0.3411  0.4061  0.0255
 1352SOL     OW 5179   0.720   4.195   0.069 -0.2537  0.3128 -0.2222
 1352SOL    HW2 5180   0.690   4.108   0.094  0.9139 -0.9013 -2.6322
 1352SOL    HW3 5181   0.813   4.183   0.049  0.0861  2.2685  0.0058
 1352SOL    MW4 5182   0.729   4.182   0.070  0.1570 -0.0462  0.0922
 1353SOL     OW 5183   5.966   4.569   4.872  0.3031  0.2130  0.1495
 1353SOL    HW2 5184   5.948   4.614   4.790 -1.0292 -0.8660 -0.1796
 1353SOL    HW3 5185   6.059   4.545   4.867  0.4650  0.9630 -0.6160
 1353SOL    MW4 5186   5.976   4.572   4.861 -0.3858 -0.7889 -0.4913
 1354SOL     OW 5187   2.859   4.454   1.597 -0.2020  0.6929  0.2905
 1354SOL    HW2 5188   2.851   4.427   1.505  0.7010 -1.1421  0.7067
 1354SOL    HW3 5189   2.842   4.375   1.647  1.1487  1.2121  1.6539
 1354SOL    MW4 5190   2.856   4.440   1.591 -0.1069 -0.0498  0.1832
 1355SOL     OW 5191   1.242   2.739   2.122 -0.0673 -0.5690 -0.3490
 1355SOL    HW2 5192   1.297   2.793   2.064  0.2571  1.4765  1.6953
 1355SOL    HW3 5193   1.283   2.748   2.208 -2.4228 -0.6943  0.8548
 1355SOL    MW4 5194   1.255   2.748   2.126 -0.0103 -0.7053 -0.2423
 1356SOL     OW 5195   2.766   3.797   4.001 -0.3701  0.5977  0.4610
 1356SOL    HW2 5196   2.734   3.796   4.092  1.4227  1.8465  1.1561
 1356SOL    HW3 5197   2.809   3.712   3.990 -0.2886  0.5772  0.8964
 1356SOL    MW4 5198   2.767   3.785   4.012  0.2820  0.3424  0.2528
 1357SOL     OW 5199   2.094   2.819   1.100 -0.6691 -0.2125  0.2240
 1357SOL    HW2 5200   2.034   2.846   1.031  0.2283  1.6257  0.0903
 1357SOL    HW3 5201   2.048   2.750   1.148 -2.8971  1.1832  0.1865
 1357SOL    MW4 5202   2.080   2.813   1.097  0.4988 -0.0345  0.2788
 1358SOL     OW 5203   2.403   1.746   4.623 -0.0419  0.6406  0.0507
 1358SOL    HW2 5204   2.489   1.726   4.587  0.4822  1.4829  0.7964
 1358SOL    HW3 5205   2.384   1.835   4.593 -0.8939  0.2752 -0.5385
 1358SOL    MW4 5206   2.412   1.755   4.615 -0.0872 -0.3856 -0.0006
 1359SOL     OW 5207   5.961   3.600   5.777  0.0569 -0.1850  0.2415
 1359SOL    HW2 5208   5.972   3.680   5.828  0.7542  1.4663 -2.3414
 1359SOL    HW3 5209   5.889   3.618   5.717  0.1409 -1.5505 -0.3135
 1359SOL    MW4 5210   5.953   3.613   5.776  0.3255  0.3141  0.0336
 1360SOL     OW 5211   4.209   3.578   6.124  0.7150  0.5079  0.1003
 1360SOL    HW2 5212   4.260   3.520   6.180 -0.4784 -1.3170 -0.6303
 1360SOL    HW3 5213   4.138   3.609   6.180 -0.8101 -1.7695 -0.4634
 1360SOL    MW4 5214   4.207   3.575   6.139  0.0578  0.4764  0.9321
 1361SOL     OW 5215   4.546   4.058   2.040  0.2004 -0.1464  0.6350
 1361SOL    HW2 5216   4.515   4.141   2.076 -0.3742 -0.2215  0.3233
 1361SOL    HW3 5217   4.627   4.040   2.088 -0.4153 -0.1153  1.7031
 1361SOL    MW4 5218   4.553   4.067   2.051 -0.0243  0.0241  0.4316
 1362SOL     OW 5219   2.569   1.921   1.661 -0.5002  0.1782 -0.1960
 1362SOL    HW2 5220   2.521   1.867   1.598 -0.9814 -0.0514  0.3558
 1362SOL    HW3 5221   2.582   1.863   1.737 -0.9357  0.7992  0.3642
 1362SOL    MW4 5222   2.564   1.906   1.663 -0.6872 -0.1787 -0.0440
 1363SOL     OW 5223   2.784   2.974   2.204 -0.1806 -0.1505  0.3519
 1363SOL    HW2 5224   2.845   2.921   2.256  3.1182  1.8639 -1.1056
 1363SOL    HW3 5225   2.730   3.018   2.269 -0.3008 -2.1947  1.7403
 1363SOL    MW4 5226   2.785   2.973   2.219 -0.0075 -0.8934 -0.2751
 1364SOL     OW 5227   0.241   6.185   3.714 -0.4133 -0.1275  0.3453
 1364SOL    HW2 5228   0.228   6.090   3.714  1.4334 -0.4182 -0.3215
 1364SOL    HW3 5229   0.250   6.208   3.806 -0.4384 -0.6667  0.4843
 1364SOL    MW4 5230   0.241   6.176   3.726  0.0885  0.8815  0.1845
 1365SOL     OW 5231   2.464   4.681   3.305  0.3973 -0.4608  0.6935
 1365SOL    HW2 5232   2.549   4.637   3.309 -0.8855 -3.1899  0.1147
 1365SOL    HW3 5233   2.430   4.676   3.394  1.2809  1.7055  1.2014
 1365SOL    MW4 5234   2.471   4.674   3.317  0.4700  0.2231  0.6753
 1366SOL     OW 5235   2.977   4.984   4.893  0.1340  0.2004 -0.0026
 1366SOL    HW2 5236   3.047   4.941   4.942  0.0128 -0.4233 -0.3655
 1366SOL    HW3 5237   2.902   4.926   4.901 -0.1917  0.6116 -0.0476
 1366SOL    MW4 5238   2.977   4.971   4.900  0.0056  0.5192 -0.1738
 1367SOL     OW 5239   2.090   1.754   5.946 -0.5500  0.1861 -0.1709
 1367SOL    HW2 5240   2.031   1.779   5.875  0.6435  1.0165 -0.9158
 1367SOL    HW3 5241   2.171   1.802   5.928 -0.3311  0.7356  1.9673
 1367SOL    MW4 5242   2.093   1.764   5.934  0.2541 -0.3197  0.0775
 1368SOL     OW 5243   3.886   3.721   4.958  0.5068  0.2237 -0.4070
 1368SOL    HW2 5244   3.802   3.681   4.936  0.0701  0.8525  0.0406
 1368SOL    HW3 5245   3.952   3.657   4.933 -0.1826 -1.0075  0.8108
 1368SOL    MW4 5246   3.884   3.708   4.952 -0.8540 -0.3449 -0.2751
 1369SOL     OW 5247   4.637   3.580   5.587  0.1886  0.1621 -0.2555
 1369SOL    HW2 5248   4.708   3.586   5.524 -0.4232  0.0180 -0.9678
 1369SOL    HW3 5249   4.626   3.486   5.602 -1.9009 -0.0530 -2.5512
 1369SOL    MW4 5250   4.645   3.568   5.581  0.7085  0.3900 -0.0155
 1370SOL     OW 5251   1.359   0.177   4.511  0.3291  0.0229 -0.3202
 1370SOL    HW2 5252   1.405   0.224   4.580  1.5003 -2.0763  0.4083
 1370SOL    HW3 5253   1.355   0.239   4.438  0.2194  1.8372  1.1430
 1370SOL    MW4 5254   1.364   0.191   4.511  0.6007 -0.1989 -0.2879
 1371SOL     OW 5255   3.439   4.313   4.650  0.5636 -0.3010  0.1888
 1371SOL    HW2 5256   3.354   4.306   4.695 -0.2365  3.6711 -0.3612
 1371SOL    HW3 5257   3.417   4.349   4.564  2.8217  2.4507  0.6322
 1371SOL    MW4 5258   3.425   4.317   4.645  0.1774  0.5322  0.0372
 1372SOL     OW 5259   2.973   5.679   3.409  0.3441  0.0857  0.2209
 1372SOL    HW2 5260   3.068   5.673   3.399  0.2046 -2.2616 -0.2486
 1372SOL    HW3 5261   2.945   5.744   3.344  1.5666  0.5240  0.1115
 1372SOL    MW4 5262   2.982   5.687   3.399  0.3012 -1.1450  0.6747
 1373SOL     OW 5263   5.683   0.438   5.303 -1.0201 -0.3506  0.0634
 1373SOL    HW2 5264   5.738   0.361   5.296 -0.8790 -0.1626 -1.1216
 1373SOL    HW3 5265   5.593   0.404   5.305 -0.9606 -0.5494 -0.5152
 1373SOL    MW4 5266   5.678   0.424   5.302  0.0562  0.5220 -0.0105
 1374SOL     OW 5267   1.959   1.832   3.726 -0.4723 -0.7331 -0.7764
 1374SOL    HW2 5268   1.950   1.738   3.710 -2.5724 -0.6219 -0.4972
 1374SOL    HW3 5269   1.876   1.869   3.696  1.0499  1.3237 -2.7785
 1374SOL    MW4 5270   1.947   1.825   3.720  0.5300 -0.5043  0.5760
 1375SOL     OW 5271   3.909   2.718   0.382  0.5463 -0.3945  0.1331
 1375SOL    HW2 5272   3.946   2.669   0.455  0.9266  1.4591  1.2596
 1375SOL    HW3 5273   3.828   2.755   0.416  0.3231 -0.1422 -0.6441
 1375SOL    MW4 5274   3.903   2.716   0.396 -0.6484  0.1171  0.1429
 1376SOL     OW 5275   5.686   1.775   1.285  0.2363 -0.0426 -0.1927
 1376SOL    HW2 5276   5.592   1.787   1.272 -0.2308 -1.3810  1.4824
 1376SOL    HW3 5277   5.727   1.841   1.230 -1.7167  1.5884  0.1772
 1376SOL    MW4 5278   5.679   1.785   1.276  0.3685 -0.7124  0.3597
 1377SOL     OW 5279   0.578   0.178   3.991 -0.1857 -0.3449  0.2641
 1377SOL    HW2 5280   0.607   0.129   4.068 -0.4199 -0.9231 -0.0128
 1377SOL    HW3 5281   0.533   0.114   3.937 -2.6230  0.6506  0.9903
 1377SOL    MW4 5282   0.576   0.163   3.994 -0.0254 -0.5095  0.3711
 1378SOL     OW 5283   5.719   1.952   0.156 -0.1290 -0.2217 -0.0640
 1378SOL    HW2 5284   5.685   1.864   0.173 -1.5204 -0.0782 -1.8727
 1378SOL    HW3 5285   5.665   2.009   0.210 -0.2406 -0.3429 -0.0456
 1378SOL    MW4 5286   5.708   1.948   0.166  0.3713 -0.4674  0.1805
 1379SOL     OW 5287   0.153   4.548   2.608 -0.1544 -0.0996 -0.1492
 1379SOL    HW2 5288   0.246   4.539   2.627  0.7925 -1.2554 -4.2445
 1379SOL    HW3 5289   0.122   4.615   2.669  3.7366  1.5969  0.2652
 1379SOL    MW4 5290   0.161   4.555   2.618  0.1490  0.2994  0.4282
 1380SOL     OW 5291   6.254   4.286   1.306  0.1237  0.6245  0.0595
 1380SOL    HW2 5292   6.232   4.277   1.399  2.1097  0.5031  0.5711
 1380SOL    HW3 5293   6.295   4.202   1.283  0.1258  0.8468 -0.7826
 1380SOL    MW4 5294   6.256   4.274   1.315  0.3710  0.2500 -0.1443
 1381SOL     OW 5295   2.487   2.301   3.395 -0.1937 -0.4202 -0.8440
 1381SOL    HW2 5296   2.485   2.395   3.376 -0.7312 -0.2505 -0.0084
 1381SOL    HW3 5297   2.395   2.276   3.400 -0.1067 -0.5317  1.0358
 1381SOL    MW4 5298   2.475   2.310   3.393  0.2600  0.9555 -0.3371
 1382SOL     OW 5299   5.568   0.546   0.952  0.3024 -0.4859  0.5147
 1382SOL    HW2 5300   5.474   0.560   0.948  0.4926  0.6946 -0.3227
 1382SOL    HW3 5301   5.605   0.632   0.969  1.1362 -1.2978  3.2837
 1382SOL    MW4 5302   5.561   0.559   0.953  0.2820  0.4634  0.1502
 1383SOL     OW 5303   4.997   2.311   1.007  0.3352 -0.3454  0.2034
 1383SOL    HW2 5304   4.959   2.230   0.973 -0.6657  0.3957 -0.4992
 1383SOL    HW3 5305   4.926   2.351   1.059  0.4871  0.5540 -0.2668
 1383SOL    MW4 5306   4.983   2.306   1.010 -0.3741 -0.5269  0.0163
 1384SOL     OW 5307   1.152   1.799   0.320  0.6084  0.0263  0.4436
 1384SOL    HW2 5308   1.200   1.755   0.391 -1.6449  0.2442  2.2134
 1384SOL    HW3 5309   1.078   1.741   0.302  0.9375  0.1654 -1.5336
 1384SOL    MW4 5310   1.149   1.785   0.327 -0.4469 -0.7582  0.2808
 1385SOL     OW 5311   6.071   1.053   1.005 -0.2390  0.4330 -0.1401
 1385SOL    HW2 5312   6.075   0.965   0.967  3.3254  1.1036 -1.6795
 1385SOL    HW3 5313   6.024   1.105   0.939 -0.0333  0.2104 -0.4670
 1385SOL    MW4 5314   6.065   1.048   0.991 -0.6314  0.0987 -0.0707
 1386SOL     OW 5315   2.142   5.729   4.478  0.3417 -0.2432  0.4740
 1386SOL    HW2 5316   2.117   5.722   4.570  1.5997  2.1878  1.0874
 1386SOL    HW3 5317   2.060   5.727   4.430 -0.5514  0.9783  1.8728
 1386SOL    MW4 5318   2.128   5.728   4.483  0.2140  1.0694  0.0788
 1387SOL     OW 5319   6.146   2.799   1.478  0.2486  0.0131  0.2877
 1387SOL    HW2 5320   6.223   2.828   1.527 -0.7627  0.8096  1.4725
 1387SOL    HW3 5321   6.097   2.880   1.460 -1.7026 -0.6523  2.0517
 1387SOL    MW4 5322   6.149   2.814   1.482  0.1284  0.3590 -0.1687
 1388SOL     OW 5323   6.100   1.750   1.232  0.3211 -0.1677 -0.2150
 1388SOL    HW2 5324   6.192   1.724   1.243  0.7211  2.0743  2.8587
 1388SOL    HW3 5325   6.104   1.829   1.179 -0.3321 -2.1303 -3.5056
 1388SOL    MW4 5326   6.113   1.757   1.226  0.4108 -0.9003  0.4387
 1389SOL     OW 5327   4.659   0.243   4.515  0.1996  0.4695  0.1435
 1389SOL    HW2 5328   4.590   0.177   4.506 -1.0063  1.4593  1.5974
 1389SOL    HW3 5329   4.701   0.247   4.429 -1.3267 -0.4107 -0.6724
 1389SOL    MW4 5330   4.656   0.235   4.503  0.6659  0.4031  0.0445
 1390SOL     OW 5331   5.607   4.486   0.466  0.2098 -0.5905  0.2094
 1390SOL    HW2 5332   5.534   4.427   0.448 -0.8520  0.8932 -0.5807
 1390SOL    HW3 5333   5.633   4.466   0.556 -0.9348 -1.3866  0.3774
 1390SOL    MW4 5334   5.601   4.476   0.476  0.7567  0.1479  0.4604
 1391SOL     OW 5335   5.430   5.958   3.725 -0.0386 -0.0664 -0.8430
 1391SOL    HW2 5336   5.389   6.043   3.712 -1.1249 -0.8305 -2.8905
 1391SOL    HW3 5337   5.507   5.976   3.778 -1.2593  1.8945  0.3873
 1391SOL    MW4 5338   5.434   5.972   3.730  0.3818  0.4682  0.2429
 1392SOL     OW 5339   4.358   2.695   2.886  0.0024 -0.1840  0.1737
 1392SOL    HW2 5340   4.284   2.669   2.941  0.0905 -0.4336  0.1772
 1392SOL    HW3 5341   4.317   2.733   2.808 -0.1334 -0.4604  0.1070
 1392SOL    MW4 5342   4.343   2.696   2.883  0.5255  0.3538  0.4024
 1393SOL     OW 5343   1.907   3.619   6.060  0.2753 -0.6255  0.7247
 1393SOL    HW2 5344   1.909   3.604   6.155  2.4359  2.2772  1.2579
 1393SOL    HW3 5345   1.997   3.605   6.031  0.0909  0.5434 -0.5081
 1393SOL    MW4 5346   1.919   3.615   6.069  0.0710  0.2330 -0.4134
 1394SOL     OW 5347   0.423   5.733   2.174  0.1014  0.4927  0.0138
 1394SOL    HW2 5348   0.442   5.826   2.184  0.6969  0.4008 -0.2416
 1394SOL    HW3 5349   0.374   5.726   2.092  0.5913  0.5108 -0.2835
 1394SOL    MW4 5350   0.419   5.744   2.165  0.1887  0.6907 -0.5120
 1395SOL     OW 5351   1.006   3.300   3.707  0.5677 -0.1067  0.7059
 1395SOL    HW2 5352   0.984   3.353   3.631 -2.5199 -0.7625  1.0285
 1395SOL    HW3 5353   1.049   3.222   3.671 -0.2577 -0.0979 -0.3129
 1395SOL    MW4 5354   1.009   3.297   3.692 -0.2870  0.2239  0.2206
 1396SOL     OW 5355   5.687   3.802   4.446  0.1596 -0.2466  0.3508
 1396SOL    HW2 5356   5.729   3.741   4.385 -0.7912 -0.8664  0.2946
 1396SOL    HW3 5357   5.692   3.759   4.531  1.7029  0.7247  0.7982
 1396SOL    MW4 5358   5.693   3.789   4.449 -0.1086  0.2795 -0.0538
 1397SOL     OW 5359   2.174   4.828   0.980 -0.9645  0.1892  0.0587
 1397SOL    HW2 5360   2.247   4.852   0.923 -0.8602 -0.1515  0.0467
 1397SOL    HW3 5361   2.149   4.910   1.023  0.5889 -0.0048  1.4225
 1397SOL    MW4 5362   2.181   4.842   0.978 -0.1742 -0.1495 -0.5503
 1398SOL     OW 5363   2.982   1.867   6.410 -0.1908  0.5836 -0.1921
 1398SOL    HW2 5364   3.032   1.926   6.353  0.6122  0.1688  0.0571
 1398SOL    HW3 5365   2.919   1.923   6.455  1.0330  1.3861  0.5724
 1398SOL    MW4 5366   2.980   1.882   6.408  0.2485  0.3948  0.4108
 1399SOL     OW 5367   3.773   1.484   3.100  0.3707  0.1680  0.0203
 1399SOL    HW2 5368   3.688   1.460   3.139  0.6040  0.5493  0.7735
 1399SOL    HW3 5369   3.785   1.576   3.123  0.6377  0.3380 -0.7520
 1399SOL    MW4 5370   3.763   1.493   3.108  0.3849  0.1136  0.3309
 1400SOL     OW 5371   0.537   2.458   5.507  0.2070  0.2496 -1.0252
 1400SOL    HW2 5372   0.607   2.396   5.484  0.6296  1.5813 -3.7642
 1400SOL    HW3 5373   0.457   2.405   5.505  0.6825 -0.4663 -2.1498
 1400SOL    MW4 5374   0.536   2.443   5.504  0.7498  0.5862 -0.0603
 1401SOL     OW 5375   0.712   5.368   2.873  0.4933  0.3493 -0.1536
 1401SOL    HW2 5376   0.664   5.320   2.805  2.0079 -0.0578 -0.9957
 1401SOL    HW3 5377   0.712   5.459   2.842  0.0737  0.3877 -0.0379
 1401SOL    MW4 5378   0.706   5.374   2.860 -0.1642 -0.3822  0.0614
 1402SOL     OW 5379   0.197   5.734   1.732 -0.3108  0.4758 -0.1297
 1402SOL    HW2 5380   0.275   5.776   1.697  0.1426 -1.1483 -1.1533
 1402SOL    HW3 5381   0.124   5.775   1.685  0.0741  0.4899 -0.7232
 1402SOL    MW4 5382   0.198   5.745   1.722 -0.4343  0.4584  0.2170
 1403SOL     OW 5383   2.116   3.256   5.331 -0.9054 -0.1511 -0.0767
 1403SOL    HW2 5384   2.194   3.200   5.330 -1.4357 -0.9161  0.1499
 1403SOL    HW3 5385   2.141   3.333   5.281  0.4901  0.3028  1.2282
 1403SOL    MW4 5386   2.129   3.259   5.324  0.5084 -0.3039 -0.6325
 1404SOL     OW 5387   2.113   0.446   1.538  0.1986 -0.1234 -0.0699
 1404SOL    HW2 5388   2.053   0.411   1.473 -1.6112  1.8019  0.4555
 1404SOL    HW3 5389   2.087   0.403   1.620 -1.0760  1.2566  0.3036
 1404SOL    MW4 5390   2.102   0.436   1.540 -0.6930  0.1111 -0.0745
 1405SOL     OW 5391   5.700   4.090   4.339  0.1768  0.0266 -0.3654
 1405SOL    HW2 5392   5.691   4.002   4.374 -0.5985  0.4024  0.4136
 1405SOL    HW3 5393   5.783   4.089   4.291  1.4508 -0.4310  1.7376
 1405SOL    MW4 5394   5.710   4.078   4.337  0.0770 -0.0357  0.1099
 1406SOL     OW 5395   3.550   2.932   0.937 -0.0035  0.1619  0.0873
 1406SOL    HW2 5396   3.531   2.943   0.844  1.1868  3.1081  0.0792
 1406SOL    HW3 5397   3.469   2.898   0.975 -1.4563  1.5731 -1.6031
 1406SOL    MW4 5398   3.537   2.929   0.930  0.2121 -0.0324  0.1865
 1407SOL     OW 5399   3.793   2.152   6.111 -0.4069 -0.1795 -0.6840
 1407SOL    HW2 5400   3.842   2.220   6.157 -0.4631 -0.0535 -0.8083
 1407SOL    HW3 5401   3.761   2.093   6.180 -1.5093  0.6672 -0.4450
 1407SOL    MW4 5402   3.795   2.153   6.126  0.5320  0.6481  0.0544
 1408SOL     OW 5403   5.703   4.125   3.014  0.2565 -0.1023  0.2922
 1408SOL    HW2 5404   5.756   4.101   3.091  0.7722 -0.7436 -0.2423
 1408SOL    HW3 5405   5.756   4.096   2.939  0.2041  1.3786 -0.3521
 1408SOL    MW4 5406   5.717   4.118   3.014  0.4314  0.0111  0.3143
 1409SOL     OW 5407   5.741   5.162   5.462 -0.5250  0.4495 -0.3953
 1409SOL    HW2 5408   5.749   5.088   5.401 -0.7614 -0.6732  0.8892
 1409SOL    HW3 5409   5.653   5.153   5.499 -1.1579  2.2878 -1.3152
 1409SOL    MW4 5410   5.730   5.151   5.459  0.4689 -0.2055 -0.1642
 1410SOL     OW 5411   1.533   6.296   0.382  0.2476 -0.0633  1.0799
 1410SOL    HW2 5412   1.623   6.264   0.370  0.5933  1.0025  0.6600
 1410SOL    HW3 5413   1.500   6.248   0.458  0.5039 -1.8468  0.1207
 1410SOL    MW4 5414   1.541   6.285   0.390 -0.0227 -0.5820  0.4146
 1411SOL     OW 5415   1.558   6.093   3.579 -0.2807  0.2576 -0.2921
 1411SOL    HW2 5416   1.487   6.037   3.611 -0.9781  1.1689 -0.1737
 1411SOL    HW3 5417   1.587   6.141   3.657  2.3166 -1.9732  0.2474
 1411SOL    MW4 5418   1.552   6.092   3.593 -0.1941  0.0237 -0.6626
 1412SOL     OW 5419   4.348   2.221   4.389  0.2089 -0.5670 -0.5549
 1412SOL    HW2 5420   4.331   2.127   4.389  1.0180 -0.7584  1.4588
 1412SOL    HW3 5421   4.271   2.260   4.430 -0.3312 -0.2780 -1.8061
 1412SOL    MW4 5422   4.336   2.214   4.394 -0.6441 -0.1550  0.2783
 1413SOL     OW 5423   4.377   1.147   1.015 -0.3528  0.2382  0.3314
 1413SOL    HW2 5424   4.301   1.089   1.018  0.3565 -0.6576  2.4589
 1413SOL    HW3 5425   4.361   1.211   1.084 -0.2264  1.4732 -0.7449
 1413SOL    MW4 5426   4.365   1.148   1.024 -0.0324 -0.3508  0.5106
 1414SOL     OW 5427   0.011   5.872   1.577 -0.0871  0.0579 -0.7473
 1414SOL    HW2 5428   0.029   5.928   1.501  0.4450  2.7798  1.2530
 1414SOL    HW3 5429  -0.078   5.896   1.604  0.5981  0.8796  0.8627
 1414SOL    MW4 5430   0.001   5.882   1.570 -0.4266 -0.2960 -0.7651
 1415SOL     OW 5431   1.224   4.754   4.527  0.3330  0.8358  0.0729
 1415SOL    HW2 5432   1.215   4.746   4.432  1.8334  0.1171 -0.0430
 1415SOL    HW3 5433   1.157   4.696   4.563 -0.1764  1.0319 -0.5394
 1415SOL    MW4 5434   1.214   4.745   4.520  0.1459  0.1552 -0.1845
 1416SOL     OW 5435   0.834   3.895   1.316  0.5295 -0.2297 -0.1631
 1416SOL    HW2 5436   0.832   3.799   1.314  1.3661 -0.2619  0.2236
 1416SOL    HW3 5437   0.871   3.919   1.231  0.2363 -0.2409 -0.2963
 1416SOL    MW4 5438   0.838   3.885   1.305  0.1689  0.2552 -0.3281
 1417SOL     OW 5439   3.845   0.926   0.544  0.1663  0.2981  0.4736
 1417SOL    HW2 5440   3.796   0.845   0.530  0.5806  0.0684  0.3677
 1417SOL    HW3 5441   3.846   0.969   0.459 -2.4511  1.7828  1.0550
 1417SOL    MW4 5442   3.839   0.921   0.531  0.2036 -0.4049  0.1782
 1418SOL     OW 5443   0.984   3.732   5.795  0.5468  0.1507  0.3355
 1418SOL    HW2 5444   0.957   3.723   5.704 -0.3737 -0.5582  0.6672
 1418SOL    HW3 5445   1.078   3.751   5.791  0.1263  2.3282 -0.8425
 1418SOL    MW4 5446   0.993   3.733   5.783  0.4297 -0.5950 -0.2205
 1419SOL     OW 5447   0.573   0.950   4.685  0.0511 -0.4120  0.0975
 1419SOL    HW2 5448   0.514   0.918   4.753  1.5317  0.0490  1.6634
 1419SOL    HW3 5449   0.640   0.882   4.678 -0.1622 -0.5217 -1.0315
 1419SOL    MW4 5450   0.574   0.937   4.693  1.0757 -0.3946  0.0319
 1420SOL     OW 5451   0.014   5.032   1.298  0.2263 -0.3225  0.4277
 1420SOL    HW2 5452   0.002   5.114   1.252 -0.5200 -1.5989 -1.8045
 1420SOL    HW3 5453  -0.067   4.983   1.282  1.0529 -1.8858  0.8373
 1420SOL    MW4 5454   0.002   5.036   1.290  0.0646  0.6786 -0.1614
 1421SOL     OW 5455   3.945   1.749   0.333  0.5510 -0.3999 -0.1081
 1421SOL    HW2 5456   3.883   1.780   0.267 -0.1820 -0.0253  0.7305
 1421SOL    HW3 5457   3.959   1.825   0.390  2.1624 -0.3326 -0.5394
 1421SOL    MW4 5458   3.938   1.763   0.332  0.1305 -0.2554  0.3864
 1422SOL     OW 5459   2.343   1.020   3.514  0.5205 -0.2432  0.0681
 1422SOL    HW2 5460   2.295   1.089   3.560  2.2859  1.3505 -0.3336
 1422SOL    HW3 5461   2.314   1.027   3.423 -1.7975 -2.3546  0.5358
 1422SOL    MW4 5462   2.333   1.030   3.508  0.4292 -0.3683 -0.0083
 1423SOL     OW 5463   3.117   1.855   0.381 -0.1312 -0.5029  0.1652
 1423SOL    HW2 5464   3.125   1.801   0.460  1.3188 -0.2513  0.2127
 1423SOL    HW3 5465   3.185   1.921   0.391 -2.7319  2.3372  0.8474
 1423SOL    MW4 5466   3.127   1.857   0.393  0.2760 -0.2407 -0.0396
 1424SOL     OW 5467   1.145   5.090   4.690  0.3766  0.1924 -0.3217
 1424SOL    HW2 5468   1.153   5.183   4.710  0.0617 -0.3408  2.7544
 1424SOL    HW3 5469   1.211   5.048   4.745  0.1120 -1.4714 -1.2200
 1424SOL    MW4 5470   1.155   5.097   4.700 -0.2581 -0.0163 -0.4828
 1425SOL     OW 5471   4.574   3.897   3.741  0.4759  0.3208 -0.2409
 1425SOL    HW2 5472   4.621   3.816   3.757  1.4575  0.9877  0.3708
 1425SOL    HW3 5473   4.605   3.926   3.655  1.1061  0.6982  0.1088
 1425SOL    MW4 5474   4.584   3.890   3.732 -0.0814 -0.4911 -0.1546
 1426SOL     OW 5475   6.152   4.533   1.831  0.1180  0.4548 -0.0959
 1426SOL    HW2 5476   6.211   4.465   1.865  2.6442  1.8725 -1.3733
 1426SOL    HW3 5477   6.210   4.603   1.802 -2.3562  2.9625  0.5938
 1426SOL    MW4 5478   6.167   4.533   1.832 -0.6929 -0.4368  0.0451
 1427SOL     OW 5479   3.839   5.622   2.832 -0.1025  0.2745  0.0699
 1427SOL    HW2 5480   3.746   5.641   2.833  0.1101  1.4167  0.1915
 1427SOL    HW3 5481   3.846   5.533   2.867 -1.1273  0.2444  0.2276
 1427SOL    MW4 5482   3.828   5.613   2.837  0.1860 -0.0920 -0.3723
 1428SOL     OW 5483   1.952   2.150   0.091 -0.0166 -0.3983  0.1097
 1428SOL    HW2 5484   1.916   2.066   0.065 -1.3691  0.7078 -1.8036
 1428SOL    HW3 5485   1.971   2.195   0.009 -1.1054  1.8637  1.0000
 1428SOL    MW4 5486   1.949   2.145   0.077  0.1405 -0.3619 -0.5709
 1429SOL     OW 5487   4.418   5.005   1.119 -0.4566  0.0097 -0.3922
 1429SOL    HW2 5488   4.354   5.012   1.048 -1.7146 -0.2510  0.6644
 1429SOL    HW3 5489   4.438   5.096   1.142 -0.0427  0.0960 -1.0628
 1429SOL    MW4 5490   4.412   5.018   1.112 -0.6986  0.2352 -0.2801
 1430SOL     OW 5491   4.266   3.851   3.563  0.3386  0.0518 -0.3590
 1430SOL    HW2 5492   4.291   3.911   3.633  0.4623 -0.0981 -0.2735
 1430SOL    HW3 5493   4.240   3.908   3.491 -1.0308  0.2106  0.2354
 1430SOL    MW4 5494   4.266   3.866   3.563 -0.2037 -0.2438 -0.0065
 1431SOL     OW 5495   0.537   5.267   1.607  0.1417 -0.0680 -0.4066
 1431SOL    HW2 5496   0.527   5.345   1.661  0.3443 -0.2977 -0.0320
 1431SOL    HW3 5497   0.448   5.241   1.585  0.0874  0.4819 -0.8454
 1431SOL    MW4 5498   0.524   5.274   1.611 -0.0788  0.5400 -0.2322
 1432SOL     OW 5499   4.307   1.345   5.453  0.3419  0.5688 -0.6497
 1432SOL    HW2 5500   4.335   1.405   5.523 -2.0446  0.4044  0.5496
 1432SOL    HW3 5501   4.219   1.375   5.430  0.2758 -0.6699 -2.1295
 1432SOL    MW4 5502   4.299   1.357   5.459  0.1573  0.0376  0.2326
 1433SOL     OW 5503   2.421   0.419   2.394  0.0296  0.2913  0.4706
 1433SOL    HW2 5504   2.393   0.328   2.389  0.3399  0.0680  2.2504
 1433SOL    HW3 5505   2.449   0.441   2.305 -1.6164 -0.8145 -0.3705
 1433SOL    MW4 5506   2.421   0.410   2.381  0.1018  0.5362  0.7384
 1434SOL     OW 5507   0.419   1.921   4.662  0.2829 -0.2090 -0.0063
 1434SOL    HW2 5508   0.488   1.892   4.722  2.5490 -0.4054 -2.5293
 1434SOL    HW3 5509   0.397   1.843   4.611 -0.1842  0.3994 -0.7526
 1434SOL    MW4 5510   0.425   1.907   4.663 -0.2205  0.0557  0.1671
 1435SOL     OW 5511   5.031   5.656   5.482 -0.0194 -0.8633 -0.1678
 1435SOL    HW2 5512   5.082   5.722   5.435 -0.4610 -1.3322 -1.3185
 1435SOL    HW3 5513   5.030   5.580   5.425 -1.0227 -1.2597  0.3496
 1435SOL    MW4 5514   5.037   5.655   5.469 -0.3741  0.2223  0.1215
 1436SOL     OW 5515   2.580   1.349   6.200  0.3112 -0.1467 -0.2343
 1436SOL    HW2 5516   2.656   1.334   6.256 -1.1331 -1.2881  1.5398
 1436SOL    HW3 5517   2.548   1.436   6.226  0.0055 -0.4099  0.2752
 1436SOL    MW4 5518   2.586   1.359   6.211 -0.1939 -0.5652  0.2872
 1437SOL     OW 5519   3.840   6.301   1.237  0.0329 -0.2415  0.0759
 1437SOL    HW2 5520   3.808   6.274   1.151 -1.6376  1.0557  0.2467
 1437SOL    HW3 5521   3.844   6.396   1.233 -2.2531  0.0420  2.0877
 1437SOL    MW4 5522   3.836   6.310   1.225 -0.1635  0.1267  0.4420
 1438SOL     OW 5523   3.418   4.747   4.637 -0.2992 -0.3329 -0.2989
 1438SOL    HW2 5524   3.359   4.696   4.581 -1.8244 -0.8693  1.6823
 1438SOL    HW3 5525   3.386   4.837   4.629 -1.0925 -0.5447  0.3697
 1438SOL    MW4 5526   3.406   4.752   4.628  0.0341  0.2120 -0.1219
 1439SOL     OW 5527   5.751   0.004   3.914 -0.1692  0.4395  0.1496
 1439SOL    HW2 5528   5.800  -0.072   3.880  1.9370  0.5686  2.5754
 1439SOL    HW3 5529   5.748  -0.011   4.009 -0.9204  2.7134  0.5305
 1439SOL    MW4 5530   5.757  -0.008   3.922  0.5331 -0.4933  0.6251
 1440SOL     OW 5531   3.880   0.429   5.789  0.1849 -0.1994 -0.6209
 1440SOL    HW2 5532   3.914   0.375   5.860  0.8647  0.2983 -0.5565
 1440SOL    HW3 5533   3.936   0.408   5.714 -0.0947 -0.2193 -0.8251
 1440SOL    MW4 5534   3.892   0.419   5.788  0.3923  0.0359  0.4899
 1441SOL     OW 5535   2.109   4.602   6.207  0.2192  0.0504  0.5683
 1441SOL    HW2 5536   2.014   4.611   6.221  0.5845  0.1411  3.5411
 1441SOL    HW3 5537   2.144   4.688   6.231  1.1749 -0.3315  0.5439
 1441SOL    MW4 5538   2.101   4.615   6.212  0.2394 -0.1815  0.4054
 1442SOL     OW 5539   5.215   2.273   0.654 -0.4108 -0.0100  0.2949
 1442SOL    HW2 5540   5.134   2.258   0.604 -0.0374  2.3739 -1.1688
 1442SOL    HW3 5541   5.201   2.355   0.700  1.0956  0.3450  0.1859
 1442SOL    MW4 5542   5.203   2.282   0.654  0.2198 -0.0207 -0.4960
 1443SOL     OW 5543   0.548   2.977   3.986  0.4619  0.1874 -0.2704
 1443SOL    HW2 5544   0.484   2.952   3.920  0.6994  0.8523 -0.7668
 1443SOL    HW3 5545   0.591   3.055   3.949  0.5348  0.6226  0.7090
 1443SOL    MW4 5546   0.545   2.984   3.972  0.1365 -1.1047  0.3408
 1444SOL     OW 5547   4.672   3.611   3.868  0.0227  0.6443  0.0897
 1444SOL    HW2 5548   4.655   3.600   3.962 -1.1145  0.0134 -0.1816
 1444SOL    HW3 5549   4.596   3.574   3.825  1.3059 -0.6530 -1.1446
 1444SOL    MW4 5550   4.660   3.605   3.875 -0.2181  0.0853  0.2460
 1445SOL     OW 5551   0.881   2.695   4.275 -0.3966  0.2664 -0.1027
 1445SOL    HW2 5552   0.876   2.686   4.370 -2.8004  0.2563 -0.1625
 1445SOL    HW3 5553   0.872   2.606   4.242 -2.0038  0.4619 -0.3176
 1445SOL    MW4 5554   0.879   2.682   4.283 -0.0703  0.0540  0.3246
 1446SOL     OW 5555   3.526   0.317   1.665 -0.3924  0.4095 -0.3142
 1446SOL    HW2 5556   3.450   0.260   1.664  0.7496 -1.2134  0.4426
 1446SOL    HW3 5557   3.550   0.326   1.573 -1.3078  0.7188 -0.5348
 1446SOL    MW4 5558   3.519   0.311   1.653  0.2966 -0.1308 -0.1503
 1447SOL     OW 5559   5.399   6.381   5.615  0.2433 -0.2167 -0.0492
 1447SOL    HW2 5560   5.376   6.447   5.549 -0.2562 -0.3702 -0.0243
 1447SOL    HW3 5561   5.319   6.367   5.664 -0.2322 -2.3279 -1.3300
 1447SOL    MW4 5562   5.386   6.388   5.613  0.2322 -0.2317 -0.0428
 1448SOL     OW 5563   6.015   0.291   4.485  0.1592 -0.6578  0.0918
 1448SOL    HW2 5564   5.979   0.202   4.493  0.5387 -0.8811 -0.6643
 1448SOL    HW3 5565   6.052   0.294   4.397  1.7046 -0.3185  0.7315
 1448SOL    MW4 5566   6.015   0.279   4.474 -0.4588 -0.3492  0.5447
 1449SOL     OW 5567   2.136   5.192   4.117 -0.1872 -0.5689 -0.2382
 1449SOL    HW2 5568   2.120   5.283   4.092 -3.3894 -0.4303  1.8269
 1449SOL    HW3 5569   2.105   5.141   4.042  2.0481 -0.0634 -1.6005
 1449SOL    MW4 5570   2.130   5.197   4.103 -0.4314 -0.3486 -0.3750
 1450SOL     OW 5571   1.329   3.668   4.892 -0.8304 -0.2317 -0.1845
 1450SOL    HW2 5572   1.296   3.589   4.935  1.9142  0.6043  4.0580
 1450SOL    HW3 5573   1.282   3.740   4.934 -1.3623  0.5467 -2.0290
 1450SOL    MW4 5574   1.319   3.667   4.903 -0.3389 -0.4467 -0.1734
 1451SOL     OW 5575   6.267   3.161   6.082  0.0853  0.1842  0.0527
 1451SOL    HW2 5576   6.222   3.234   6.039  0.7321  1.0701  0.8478
 1451SOL    HW3 5577   6.352   3.157   6.038 -0.6095 -1.3339 -1.2843
 1451SOL    MW4 5578   6.272   3.170   6.070  0.6499  0.3563  0.4026
 1452SOL     OW 5579   5.764   1.276   5.690  0.1238  0.6486  0.0108
 1452SOL    HW2 5580   5.725   1.350   5.643 -0.8691 -0.4548 -0.9875
 1452SOL    HW3 5581   5.797   1.219   5.620  1.8595  0.6413  0.7925
 1452SOL    MW4 5582   5.763   1.279   5.674  0.1383  0.4692 -0.0751
 1453SOL     OW 5583   4.056   1.546   2.137 -0.0612 -0.1393  0.0976
 1453SOL    HW2 5584   4.045   1.460   2.178  0.2019 -0.9951 -1.5588
 1453SOL    HW3 5585   4.058   1.528   2.043  0.0247  1.6841 -0.2816
 1453SOL    MW4 5586   4.055   1.532   2.130  0.3805 -0.0533 -0.1095
 1454SOL     OW 5587   2.267   1.936   5.463 -0.0892 -0.7026 -0.0273
 1454SOL    HW2 5588   2.336   1.939   5.530  1.1281 -1.8383 -1.1536
 1454SOL    HW3 5589   2.203   1.874   5.498  0.0605 -0.5667  0.5007
 1454SOL    MW4 5590   2.268   1.928   5.476  0.0229  0.0354  0.0711
 1455SOL     OW 5591   3.144   3.966   3.289  0.4484 -0.4113  0.1810
 1455SOL    HW2 5592   3.173   3.875   3.286  0.3785 -0.5104  1.7621
 1455SOL    HW3 5593   3.124   3.982   3.381  0.6215  1.2595 -0.0438
 1455SOL    MW4 5594   3.145   3.956   3.301  0.6665  0.5637  0.0697
 1456SOL     OW 5595   3.477   2.189   3.343  0.2333  0.4640  0.4382
 1456SOL    HW2 5596   3.479   2.281   3.370  1.4093  0.0032  2.0917
 1456SOL    HW3 5597   3.389   2.160   3.363 -0.7501  1.6302 -1.7679
 1456SOL    MW4 5598   3.466   2.197   3.349 -0.1769 -0.9360 -0.2761
 1457SOL     OW 5599   4.263   4.787   3.077  0.4325 -0.1229 -0.4622
 1457SOL    HW2 5600   4.236   4.844   3.148 -1.1556  0.9370 -1.8359
 1457SOL    HW3 5601   4.229   4.700   3.100 -0.0310  0.1992  0.0681
 1457SOL    MW4 5602   4.255   4.783   3.089 -0.2143 -0.6630 -0.1273
 1458SOL     OW 5603   3.560   5.833   5.657  0.2919 -0.2261 -0.0898
 1458SOL    HW2 5604   3.624   5.783   5.606 -0.0422 -0.6150 -0.1365
 1458SOL    HW3 5605   3.574   5.923   5.630 -0.0851 -0.4585 -1.1227
 1458SOL    MW4 5606   3.570   5.838   5.646 -0.0212 -0.3073  0.4203
 1459SOL     OW 5607   0.710   1.198   3.215  0.4490  0.1427  0.2401
 1459SOL    HW2 5608   0.741   1.286   3.234 -1.4921  1.1863 -1.1129
 1459SOL    HW3 5609   0.615   1.206   3.210  0.2119 -2.0582  0.1357
 1459SOL    MW4 5610   0.701   1.211   3.217  0.3489 -0.0549 -0.2002
 1460SOL     OW 5611   4.733   4.279   6.042 -0.3505 -0.3731  0.1364
 1460SOL    HW2 5612   4.793   4.209   6.069  0.0180 -0.9096 -1.9170
 1460SOL    HW3 5613   4.706   4.320   6.124  0.6473 -1.9165  1.2950
 1460SOL    MW4 5614   4.738   4.275   6.056 -0.2106 -0.6206  0.1012
 1461SOL     OW 5615   0.339   0.459   0.749  0.1963 -0.0797 -0.5079
 1461SOL    HW2 5616   0.248   0.427   0.743  0.3991 -0.5785 -1.0150
 1461SOL    HW3 5617   0.348   0.518   0.674  0.1138  0.4345 -0.1162
 1461SOL    MW4 5618   0.328   0.463   0.738  0.5699  0.0527  0.2783
 1462SOL     OW 5619   6.248   5.582   5.632  0.1606 -0.3856 -0.4669
 1462SOL    HW2 5620   6.189   5.657   5.636  3.1122  2.1252  0.0583
 1462SOL    HW3 5621   6.229   5.532   5.711 -1.2074  0.3577 -0.3023
 1462SOL    MW4 5622   6.238   5.585   5.643  0.2575  0.9423 -0.3542
 1463SOL     OW 5623   1.231   4.162   0.443 -0.1329 -0.3062  0.0571
 1463SOL    HW2 5624   1.216   4.228   0.511  2.5976 -0.0244  0.5029
 1463SOL    HW3 5625   1.228   4.210   0.361  0.1327  0.0406  0.2503
 1463SOL    MW4 5626   1.229   4.177   0.441 -0.1469  0.3136 -0.3682
 1464SOL     OW 5627   2.818   2.904   3.944 -0.4537 -0.0227  0.5881
 1464SOL    HW2 5628   2.763   2.888   4.021  2.6163 -2.6267  2.4501
 1464SOL    HW3 5629   2.847   2.817   3.917 -0.8680  0.8493 -3.2539
 1464SOL    MW4 5630   2.814   2.891   3.950 -0.1912  0.3371  0.2117
 1465SOL     OW 5631   1.051   4.013   1.436 -0.4656 -0.2746 -0.6703
 1465SOL    HW2 5632   1.003   4.028   1.518  0.5811  1.5645 -0.3213
 1465SOL    HW3 5633   0.989   3.968   1.380 -1.0546 -2.0670  1.2897
 1465SOL    MW4 5634   1.036   4.009   1.440 -0.3350  0.2479 -0.1636
 1466SOL     OW 5635   0.591   2.993   0.348 -0.3134  0.0500 -0.2981
 1466SOL    HW2 5636   0.575   3.075   0.302 -1.1601  0.6336  0.9835
 1466SOL    HW3 5637   0.568   3.011   0.439 -0.0570 -1.4726  0.1028
 1466SOL    MW4 5638   0.586   3.006   0.354  0.3767  0.1619 -0.1502
 1467SOL     OW 5639   2.221   6.379   3.251 -0.3388  0.3236 -0.0015
 1467SOL    HW2 5640   2.301   6.431   3.260 -1.2348  1.8988 -0.8603
 1467SOL    HW3 5641   2.247   6.291   3.280  1.1788  1.2423  1.6075
 1467SOL    MW4 5642   2.235   6.374   3.256 -0.3458 -0.0695  0.4059
 1468SOL     OW 5643   1.464   5.768   0.908 -0.4514  0.1104 -0.2921
 1468SOL    HW2 5644   1.469   5.742   0.816  1.2612 -0.5093 -0.0527
 1468SOL    HW3 5645   1.552   5.796   0.930 -0.8133  0.1614  1.1937
 1468SOL    MW4 5646   1.476   5.768   0.899  0.6669  0.3474 -0.0162
 1469SOL     OW 5647   2.536   5.562   0.649 -0.0354 -0.0493  0.6133
 1469SOL    HW2 5648   2.564   5.608   0.570 -0.8385 -0.0757  0.3020
 1469SOL    HW3 5649   2.442   5.582   0.656  0.1593  0.5259  1.9421
 1469SOL    MW4 5650   2.527   5.571   0.640  0.4651 -0.2572  0.2039
 1470SOL     OW 5651   2.965   5.257   4.949 -0.1625 -0.0787  0.9136
 1470SOL    HW2 5652   3.044   5.291   4.907 -0.1977  0.5878  1.3659
 1470SOL    HW3 5653   2.973   5.162   4.942  1.6150 -0.1075  2.6032
 1470SOL    MW4 5654   2.977   5.249   4.943  0.0412  0.3384 -0.2381
 1471SOL     OW 5655   5.416   0.864   5.639  0.2623 -0.1557 -0.1641
 1471SOL    HW2 5656   5.461   0.849   5.723 -0.6775  2.0438  0.8044
 1471SOL    HW3 5657   5.375   0.780   5.620  0.0023 -0.5672  1.9085
 1471SOL    MW4 5658   5.417   0.851   5.648  0.0623  0.6341  0.1336
 1472SOL     OW 5659   6.345   2.178   3.221 -0.5511 -0.1480 -0.2422
 1472SOL    HW2 5660   6.277   2.126   3.263 -1.5566 -0.3274 -2.0052
 1472SOL    HW3 5661   6.339   2.264   3.262  0.0693 -0.9106  1.5756
 1472SOL    MW4 5662   6.336   2.182   3.232 -0.1409  0.4915  0.4100
 1473SOL     OW 5663   3.605   6.222   4.728  0.4090  0.1079 -0.7321
 1473SOL    HW2 5664   3.588   6.140   4.773 -2.9093  0.1406 -1.6539
 1473SOL    HW3 5665   3.662   6.198   4.655 -0.8564 -1.5045 -1.2452
 1473SOL    MW4 5666   3.610   6.208   4.724 -0.5874  0.2227  0.3241
 1474SOL     OW 5667   2.160   1.718   3.910 -0.1536 -0.0421 -0.7975
 1474SOL    HW2 5668   2.099   1.737   3.839 -3.2180 -2.2942  0.9755
 1474SOL    HW3 5669   2.177   1.624   3.902  1.5093  0.1581 -0.0163
 1474SOL    MW4 5670   2.154   1.708   3.900  0.0133  0.5123  0.2428
 1475SOL     OW 5671   0.500   5.403   2.023  0.4246  0.3899 -0.8147
 1475SOL    HW2 5672   0.534   5.399   2.112 -0.0018  0.6198 -0.6382
 1475SOL    HW3 5673   0.416   5.357   2.027 -0.5732  2.1289 -0.6295
 1475SOL    MW4 5674   0.493   5.396   2.035  0.0015 -0.0245 -0.0581
 1476SOL     OW 5675   4.945   1.235   6.007  0.1077 -0.0988 -0.2225
 1476SOL    HW2 5676   5.025   1.280   6.036  0.7676 -1.2963 -0.1412
 1476SOL    HW3 5677   4.882   1.306   5.992  1.6044  0.9971 -1.6692
 1476SOL    MW4 5678   4.947   1.250   6.009 -0.1033 -0.4617  0.3193
 1477SOL     OW 5679   5.561   0.981   1.979 -0.5079  0.3838 -0.4868
 1477SOL    HW2 5680   5.495   0.928   2.022  0.3798 -0.1327  0.2893
 1477SOL    HW3 5681   5.535   0.983   1.887 -2.9279  2.2036  0.1276
 1477SOL    MW4 5682   5.549   0.974   1.973  0.0112 -0.0533 -0.0207
 1478SOL     OW 5683   2.653   0.423   1.535 -0.2628 -0.3288  0.2303
 1478SOL    HW2 5684   2.667   0.427   1.440 -0.4795 -1.8117  0.1134
 1478SOL    HW3 5685   2.717   0.485   1.571  0.7757 -0.7664 -0.7969
 1478SOL    MW4 5686   2.664   0.432   1.527 -0.1203 -0.6322  0.0889
 1479SOL     OW 5687   1.096   2.923   5.096 -0.2227 -0.0665 -0.1049
 1479SOL    HW2 5688   1.177   2.924   5.146 -1.9328 -0.6800  2.9040
 1479SOL    HW3 5689   1.043   2.854   5.137 -2.7856  1.2156 -1.0502
 1479SOL    MW4 5690   1.100   2.914   5.108  0.1595 -0.0594 -0.3542
 1480SOL     OW 5691   4.071   3.552   5.700 -0.2797  0.2218  0.1716
 1480SOL    HW2 5692   4.006   3.572   5.633  0.1933 -0.5125 -0.5363
 1480SOL    HW3 5693   4.150   3.599   5.672 -0.4502  0.9882  0.9416
 1480SOL    MW4 5694   4.073   3.561   5.687  0.0742  0.3485 -0.0101
 1481SOL     OW 5695   2.762   1.552   6.043 -0.0872  0.0441  0.3116
 1481SOL    HW2 5696   2.699   1.487   6.075 -0.1041  0.0864  0.3662
 1481SOL    HW3 5697   2.811   1.577   6.121  2.4906 -2.6276 -0.2660
 1481SOL    MW4 5698   2.760   1.547   6.058  0.2943  1.0749 -0.4538
 1482SOL     OW 5699   6.298   0.713   3.624  0.3704 -0.2220  0.4802
 1482SOL    HW2 5700   6.353   0.782   3.586 -0.5278 -0.3750 -1.1542
 1482SOL    HW3 5701   6.223   0.706   3.565  0.0965 -2.1218  0.9916
 1482SOL    MW4 5702   6.296   0.721   3.611 -0.0192  0.2770  0.1445
 1483SOL     OW 5703   5.098   6.345   4.660 -0.1188 -0.0066  0.1182
 1483SOL    HW2 5704   5.031   6.407   4.632  0.3667  1.3085  1.7209
 1483SOL    HW3 5705   5.053   6.287   4.720 -0.5637 -1.2562 -1.3515
 1483SOL    MW4 5706   5.083   6.346   4.664 -0.5485  0.6261  0.3175
 1484SOL     OW 5707   4.761   3.795   1.319  0.0183  0.0201 -0.6119
 1484SOL    HW2 5708   4.839   3.753   1.357 -0.5397 -0.2767  0.2177
 1484SOL    HW3 5709   4.738   3.864   1.382 -0.4390  0.0552 -0.8171
 1484SOL    MW4 5710   4.769   3.799   1.333  0.4829 -0.1383  0.3549
 1485SOL     OW 5711   5.991   4.685   3.038  0.5016  0.1701 -0.0954
 1485SOL    HW2 5712   5.900   4.704   3.015  0.4181  0.6745  0.6086
 1485SOL    HW3 5713   6.037   4.768   3.025  1.4053 -0.6396 -2.8202
 1485SOL    MW4 5714   5.985   4.698   3.033 -0.4479  0.1913  0.6092
 1486SOL     OW 5715   2.914   1.008   2.762  0.1423  0.0790 -0.2710
 1486SOL    HW2 5716   2.954   0.994   2.848  2.3103  1.6494 -0.9293
 1486SOL    HW3 5717   2.973   0.963   2.701 -0.0384  0.9888 -1.1316
 1486SOL    MW4 5718   2.927   1.000   2.766 -0.1953 -0.2722  0.0485
 1487SOL     OW 5719   0.834   3.372   4.678  0.2322  0.2424  0.3116
 1487SOL    HW2 5720   0.848   3.453   4.628  1.1543 -0.2770 -0.3032
 1487SOL    HW3 5721   0.908   3.316   4.654 -0.5298 -0.8883  0.5277
 1487SOL    MW4 5722   0.846   3.375   4.668 -1.0117  0.2258  0.2257
 1488SOL     OW 5723   1.999   5.960   2.499  0.3608  0.2831 -0.1621
 1488SOL    HW2 5724   1.969   6.006   2.577  0.9513  0.1288  0.1620
 1488SOL    HW3 5725   1.923   5.911   2.469  0.1614  0.2619  0.3773
 1488SOL    MW4 5726   1.985   5.960   2.505 -0.3747  0.1369 -0.2612
 1489SOL     OW 5727   0.256   5.687   5.695 -0.5662  0.0685  0.2860
 1489SOL    HW2 5728   0.166   5.699   5.724 -1.0184 -0.5454 -0.8258
 1489SOL    HW3 5729   0.258   5.598   5.660  0.3025  0.3235 -0.3386
 1489SOL    MW4 5730   0.245   5.676   5.694  0.0626 -0.4886  0.0775
 1490SOL     OW 5731   2.086   2.856   1.518 -0.2430  0.0617  0.2373
 1490SOL    HW2 5732   2.111   2.929   1.461  2.4422  0.0957  1.3274
 1490SOL    HW3 5733   2.147   2.786   1.495 -1.5274 -1.2028  0.5470
 1490SOL    MW4 5734   2.098   2.856   1.507 -0.6662 -0.0766 -0.3124
 1491SOL     OW 5735   2.275   1.720   2.958 -0.7846 -0.2362 -0.5374
 1491SOL    HW2 5736   2.243   1.770   3.033 -1.3038 -0.8735 -0.3225
 1491SOL    HW3 5737   2.358   1.761   2.935 -1.2340  0.7614 -0.4091
 1491SOL    MW4 5738   2.282   1.732   2.965 -0.1289 -0.2367 -0.0400
 1492SOL     OW 5739   4.815   1.157   5.036  0.1959 -0.4085  0.0830
 1492SOL    HW2 5740   4.816   1.155   4.941  0.7663 -2.0429  0.0928
 1492SOL    HW3 5741   4.743   1.216   5.059  0.3675  0.3848 -1.3406
 1492SOL    MW4 5742   4.806   1.164   5.027  0.2530 -0.0897 -0.3031
 1493SOL     OW 5743   4.121   4.673   4.549 -0.1041  0.2877  0.1781
 1493SOL    HW2 5744   4.085   4.691   4.462 -1.6844  0.1539  0.7695
 1493SOL    HW3 5745   4.212   4.649   4.533 -0.5844 -0.5286 -1.5268
 1493SOL    MW4 5746   4.128   4.672   4.535 -0.4932 -0.5946 -0.0886
 1494SOL     OW 5747   3.210   3.196   3.204  0.3215  0.1585  0.0932
 1494SOL    HW2 5748   3.118   3.181   3.226  0.3044  0.3418  0.1461
 1494SOL    HW3 5749   3.246   3.108   3.191  0.3499  0.0459  0.9102
 1494SOL    MW4 5750   3.203   3.182   3.205 -0.2857  0.1131 -0.2625
 1495SOL     OW 5751   5.902   6.405   1.711 -0.5946  0.2351  0.0006
 1495SOL    HW2 5752   5.987   6.361   1.715 -0.9872 -0.5104  0.5855
 1495SOL    HW3 5753   5.918   6.491   1.749 -0.5398 -0.6932  2.2829
 1495SOL    MW4 5754   5.915   6.410   1.717  0.6494  0.6647 -0.1469
 1496SOL     OW 5755   5.023   1.597   1.617  0.3863  0.4645 -0.0246
 1496SOL    HW2 5756   4.984   1.548   1.545  0.2349  0.7275 -0.1249
 1496SOL    HW3 5757   5.020   1.537   1.691  0.3660  0.2597 -0.1890
 1496SOL    MW4 5758   5.018   1.583   1.617  0.3613 -0.4877 -0.0793
 1497SOL     OW 5759   2.125   2.479   1.570  0.3813  0.3648  0.7345
 1497SOL    HW2 5760   2.194   2.426   1.611  2.6996  0.8218 -2.2300
 1497SOL    HW3 5761   2.172   2.551   1.528 -1.4056 -0.8374 -3.8921
 1497SOL    MW4 5762   2.141   2.481   1.570  0.5564  0.5568 -0.3879
 1498SOL     OW 5763   2.643   1.687   4.510 -0.2931 -0.2311 -0.5732
 1498SOL    HW2 5764   2.674   1.615   4.454  1.6857 -0.0477  0.2099
 1498SOL    HW3 5765   2.709   1.755   4.499 -1.8221  1.2680 -0.8324
 1498SOL    MW4 5766   2.656   1.686   4.501 -0.3083 -0.1569 -0.1181
 1499SOL     OW 5767   0.943   1.811   2.274 -0.5381 -0.0708 -1.0275
 1499SOL    HW2 5768   0.896   1.880   2.322 -1.2800 -1.0275 -0.3310
 1499SOL    HW3 5769   0.981   1.856   2.198 -1.3299  1.0304 -0.7968
 1499SOL    MW4 5770   0.941   1.826   2.270 -0.1503 -0.0222 -0.2780
 1500SOL     OW 5771   2.932   3.183   3.238 -0.4983  0.0799  0.5842
 1500SOL    HW2 5772   2.904   3.168   3.148  0.3605 -0.2358  0.3567
 1500SOL    HW3 5773   2.905   3.273   3.257 -1.0907 -0.0076  0.1711
 1500SOL    MW4 5774   2.925   3.193   3.228  0.6864  0.0447  0.5139
 1501SOL     OW 5775   5.426   3.324   5.321  0.8169  0.7681  0.2669
 1501SOL    HW2 5776   5.459   3.342   5.233 -0.0213  1.7721  0.1448
 1501SOL    HW3 5777   5.413   3.229   5.323 -0.0760  0.8401 -1.0391
 1501SOL    MW4 5778   5.428   3.314   5.310  0.2041  0.2619 -0.4116
 1502SOL     OW 5779   2.412   0.849   3.092 -0.2840  0.0292  0.0715
 1502SOL    HW2 5780   2.450   0.904   3.023 -1.6643 -1.9600 -2.4420
 1502SOL    HW3 5781   2.381   0.912   3.157  0.8769  2.0455 -1.1938
 1502SOL    MW4 5782   2.413   0.865   3.091 -0.7733  0.3722  0.9374
 1503SOL     OW 5783   5.445   4.016   3.109  0.6987 -0.0517  0.0314
 1503SOL    HW2 5784   5.515   4.045   3.051  0.8596  0.2518  0.3678
 1503SOL    HW3 5785   5.379   3.978   3.051  1.4507 -0.9934 -0.2267
 1503SOL    MW4 5786   5.445   4.015   3.094  0.1612 -0.3470 -0.3190
 1504SOL     OW 5787   1.875   3.388   2.543  0.2884  0.1763  0.0369
 1504SOL    HW2 5788   1.965   3.420   2.533  0.8900 -1.5887 -0.6832
 1504SOL    HW3 5789   1.847   3.368   2.454 -1.6031  2.5133 -0.0052
 1504SOL    MW4 5790   1.883   3.389   2.530 -0.0725  0.1293 -0.8628
 1505SOL     OW 5791   0.255   5.519   2.299  0.0063 -0.0162 -0.4953
 1505SOL    HW2 5792   0.286   5.531   2.389 -0.9920 -0.9312 -0.0041
 1505SOL    HW3 5793   0.297   5.589   2.250  0.1038  0.8742  0.8051
 1505SOL    MW4 5794   0.264   5.530   2.305 -0.1303  0.7295  0.0961
 1506SOL     OW 5795   5.965   0.447   5.035  0.4085  0.2385  0.6320
 1506SOL    HW2 5796   5.875   0.445   5.066  0.2051 -0.4092  0.0111
 1506SOL    HW3 5797   5.960   0.425   4.942  1.3394 -1.3528  0.9081
 1506SOL    MW4 5798   5.953   0.444   5.027 -0.2062  0.7074 -0.3178
 1507SOL     OW 5799   0.661   1.898   0.089 -0.2719 -0.2914  0.1749
 1507SOL    HW2 5800   0.580   1.894   0.040 -0.4171 -0.9324  0.4491
 1507SOL    HW3 5801   0.643   1.958   0.161 -0.4505 -0.2929  0.1311
 1507SOL    MW4 5802   0.648   1.905   0.092  0.2807  0.1057 -0.1361
 1508SOL     OW 5803   5.770   5.683   1.607 -0.0450 -0.0691  0.2901
 1508SOL    HW2 5804   5.865   5.695   1.598  0.0162 -0.4701  0.4029
 1508SOL    HW3 5805   5.748   5.617   1.542 -0.2238 -0.1000  0.3825
 1508SOL    MW4 5806   5.780   5.676   1.597  0.2209 -0.5109  0.4234
 1509SOL     OW 5807   0.907   1.879   6.020 -0.0590  0.0497 -0.2222
 1509SOL    HW2 5808   0.874   1.842   5.939 -0.8242  0.6622 -0.2068
 1509SOL    HW3 5809   0.871   1.823   6.089  0.4623 -0.3768 -0.2887
 1509SOL    MW4 5810   0.898   1.867   6.019 -0.3927 -0.4017  0.3620
 1510SOL     OW 5811   3.465   1.314   2.909  0.0867 -0.1325  0.3708
 1510SOL    HW2 5812   3.498   1.383   2.852  0.7226  0.4167  1.3756
 1510SOL    HW3 5813   3.483   1.345   2.998  1.3536 -2.0403  0.8408
 1510SOL    MW4 5814   3.472   1.327   2.913 -0.2838 -0.0441 -0.4683
 1511SOL     OW 5815   4.059   3.694   3.680 -0.4243 -0.0408 -0.0566
 1511SOL    HW2 5816   4.103   3.625   3.729  1.0426 -0.9835 -2.4888
 1511SOL    HW3 5817   4.130   3.738   3.633 -1.6594  1.2639 -0.7575
 1511SOL    MW4 5818   4.074   3.691   3.680  0.3169  0.7356 -0.4904
 1512SOL     OW 5819   3.639   1.252   2.481  0.5502  0.1732  0.2457
 1512SOL    HW2 5820   3.708   1.213   2.428  1.2928  2.3085 -0.4681
 1512SOL    HW3 5821   3.558   1.220   2.443  1.1040  0.2891 -1.0981
 1512SOL    MW4 5822   3.638   1.243   2.469  0.5091  0.1868  0.1446
 1513SOL     OW 5823   2.419   2.148   2.485  0.0450  0.2071 -0.2840
 1513SOL    HW2 5824   2.340   2.184   2.525 -0.4962 -0.7324 -0.4903
 1513SOL    HW3 5825   2.426   2.194   2.401  0.2635  0.9783  0.1398
 1513SOL    MW4 5826   2.410   2.159   2.479 -0.4085 -0.5895 -0.5546
 1514SOL     OW 5827   1.785   1.167   5.221 -0.2372 -0.6070  0.0246
 1514SOL    HW2 5828   1.719   1.145   5.156  0.6270 -1.3717 -0.6086
 1514SOL    HW3 5829   1.863   1.120   5.194 -0.6018 -3.4276  3.1967
 1514SOL    MW4 5830   1.786   1.158   5.209 -0.0143  0.5135  0.6482
 1515SOL     OW 5831   5.175   2.734   2.664  0.2120  0.3199 -0.5012
 1515SOL    HW2 5832   5.223   2.651   2.658 -0.6461 -0.3562  1.1862
 1515SOL    HW3 5833   5.220   2.783   2.733 -0.8229  0.1256  0.3462
 1515SOL    MW4 5834   5.187   2.730   2.673  0.1792  0.3720  0.6385
 1516SOL     OW 5835   3.722   5.306   6.001 -0.1193 -0.2153  0.0137
 1516SOL    HW2 5836   3.702   5.225   6.049 -0.9471  0.6251  1.1308
 1516SOL    HW3 5837   3.774   5.358   6.062  1.2063 -0.2684 -1.0389
 1516SOL    MW4 5838   3.726   5.302   6.015 -0.0700 -0.1748  0.2624
 1517SOL     OW 5839   6.420   6.349   0.097  0.1556 -0.4586 -0.0733
 1517SOL    HW2 5840   6.352   6.285   0.076 -1.2685  0.7388  0.6688
 1517SOL    HW3 5841   6.429   6.402   0.018  0.3444 -0.7264 -0.2306
 1517SOL    MW4 5842   6.412   6.348   0.084  0.6624  0.6092  1.1890
 1518SOL     OW 5843   3.123   3.200   4.257 -0.3212  0.0732  0.6417
 1518SOL    HW2 5844   3.091   3.289   4.242 -0.6908 -0.0145  0.9019
 1518SOL    HW3 5845   3.056   3.160   4.312 -1.2170 -1.0344 -1.1583
 1518SOL    MW4 5846   3.110   3.207   4.262 -0.5157 -0.4329  0.3257
 1519SOL     OW 5847   5.733   0.772   0.980 -0.5328  0.4046  0.1727
 1519SOL    HW2 5848   5.716   0.849   1.035  2.0209  1.0706  0.1585
 1519SOL    HW3 5849   5.815   0.736   1.014 -1.8580 -2.6704  0.4853
 1519SOL    MW4 5850   5.742   0.777   0.992 -0.7885 -0.7626 -0.3904
 1520SOL     OW 5851   5.519   4.834   3.231 -0.5315 -0.4525 -0.5473
 1520SOL    HW2 5852   5.446   4.816   3.170 -0.8262 -1.3850  0.0537
 1520SOL    HW3 5853   5.587   4.871   3.176 -1.4864  0.5364 -1.1160
 1520SOL    MW4 5854   5.518   4.837   3.215  0.2056 -0.0311 -0.0954
 1521SOL     OW 5855   1.276   5.511   5.249 -0.4578 -0.4667 -0.0881
 1521SOL    HW2 5856   1.192   5.551   5.270 -0.1502  1.4885 -2.1301
 1521SOL    HW3 5857   1.262   5.470   5.164  0.4940 -0.6577 -0.1644
 1521SOL    MW4 5858   1.263   5.511   5.240 -0.3498 -0.2055 -0.1652
 1522SOL     OW 5859   3.744   4.165   2.388  0.4320 -0.0582  0.4079
 1522SOL    HW2 5860   3.768   4.078   2.419 -0.1651  0.4025  2.2901
 1522SOL    HW3 5861   3.729   4.154   2.294  1.4303 -1.7349  0.4140
 1522SOL    MW4 5862   3.745   4.152   2.380  0.0321 -0.2257 -0.4268
 1523SOL     OW 5863   3.839   6.133   4.144  0.2464  0.0854 -0.3075
 1523SOL    HW2 5864   3.830   6.228   4.131  1.4051  0.2221 -0.2435
 1523SOL    HW3 5865   3.822   6.095   4.058 -1.7387  0.2026 -0.0205
 1523SOL    MW4 5866   3.835   6.141   4.131 -0.2089 -0.0242 -0.6640
 1524SOL     OW 5867   4.336   2.754   1.576  0.4149 -0.1227 -0.4198
 1524SOL    HW2 5868   4.279   2.748   1.652  0.4342 -0.8957 -0.4595
 1524SOL    HW3 5869   4.373   2.666   1.566  0.0308 -0.1738 -1.6134
 1524SOL    MW4 5870   4.334   2.742   1.585  0.1825  0.1780  0.4045
 1525SOL     OW 5871   1.744   2.669   0.805  0.3682 -0.4180 -0.0327
 1525SOL    HW2 5872   1.819   2.610   0.812  0.1657 -0.7896 -0.8199
 1525SOL    HW3 5873   1.709   2.652   0.717 -0.1466  0.3357  0.0212
 1525SOL    MW4 5874   1.749   2.659   0.794 -0.0417 -0.0126 -0.3667
 1526SOL     OW 5875   1.480   5.090   3.197 -0.0429  0.5281 -0.3483
 1526SOL    HW2 5876   1.445   5.142   3.125  0.2539 -1.8936 -2.3971
 1526SOL    HW3 5877   1.575   5.092   3.184  0.0623  0.5643  0.3630
 1526SOL    MW4 5878   1.488   5.097   3.186 -0.0733  0.1218  0.0885
 1527SOL     OW 5879   4.042   3.692   6.292  0.2117  0.0687 -0.1288
 1527SOL    HW2 5880   3.970   3.756   6.281  0.5369  0.2181 -1.6722
 1527SOL    HW3 5881   4.013   3.635   6.363 -0.7541  1.0493  0.2926
 1527SOL    MW4 5882   4.028   3.693   6.300  0.1327  0.0395  0.0946
 1528SOL     OW 5883   3.504   4.206   5.267  0.1079  0.5098 -0.9120
 1528SOL    HW2 5884   3.487   4.207   5.172 -0.2743 -2.2877 -0.9406
 1528SOL    HW3 5885   3.430   4.157   5.303 -0.1476  2.1684  0.9891
 1528SOL    MW4 5886   3.492   4.200   5.259 -0.1026  0.2073 -0.6187
 1529SOL     OW 5887   6.410   4.263   0.992  0.2725 -0.0598 -0.0596
 1529SOL    HW2 5888   6.412   4.339   0.933  4.0446 -0.2454 -0.4163
 1529SOL    HW3 5889   6.368   4.194   0.941  1.9567  0.2561 -2.0121
 1529SOL    MW4 5890   6.404   4.264   0.977  0.2153  0.3743 -0.2028
 1530SOL     OW 5891   2.532   4.769   5.855 -0.3500 -0.0159  0.1152
 1530SOL    HW2 5892   2.619   4.801   5.879 -0.4131 -0.8984  1.6259
 1530SOL    HW3 5893   2.473   4.841   5.878 -0.0551  0.5631 -0.8642
 1530SOL    MW4 5894   2.536   4.783   5.861 -0.2820 -0.4289 -0.4149
 1531SOL     OW 5895   0.473   0.462   6.150  0.7208 -0.2979  0.1365
 1531SOL    HW2 5896   0.440   0.552   6.142  1.0344 -0.2295 -0.4625
 1531SOL    HW3 5897   0.424   0.413   6.085  0.6214 -0.5430  0.3958
 1531SOL    MW4 5898   0.462   0.468   6.140 -0.1147 -0.1123  0.0772
 1532SOL     OW 5899   1.113   0.458   4.330  0.4223  0.5220 -0.2297
 1532SOL    HW2 5900   1.055   0.464   4.406  1.5608 -0.1076  0.7302
 1532SOL    HW3 5901   1.124   0.549   4.302 -0.0282  0.7674  0.3513
 1532SOL    MW4 5902   1.107   0.471   4.337 -0.0788  0.3422 -0.6700
 1533SOL     OW 5903   1.922   2.612   1.204 -0.0326 -0.0794 -0.0729
 1533SOL    HW2 5904   1.836   2.616   1.163  0.6125 -0.2153 -1.5140
 1533SOL    HW3 5905   1.907   2.638   1.294 -1.5616 -0.0002 -0.3202
 1533SOL    MW4 5906   1.909   2.616   1.210 -0.5669  0.6982 -0.0937
 1534SOL     OW 5907   5.229   3.794   5.863  0.1017  0.2993 -0.1356
 1534SOL    HW2 5908   5.175   3.745   5.801 -0.7871  0.5607  0.4164
 1534SOL    HW3 5909   5.168   3.852   5.908  0.7423  0.1724  0.9334
 1534SOL    MW4 5910   5.214   3.795   5.861 -0.0816  0.2862 -0.1706
 1535SOL     OW 5911   0.435   4.239   0.510  0.1940 -0.0860  1.2411
 1535SOL    HW2 5912   0.428   4.303   0.440 -1.3494  0.9793  2.2979
 1535SOL    HW3 5913   0.502   4.275   0.569  2.6233 -1.7239 -0.3213
 1535SOL    MW4 5914   0.443   4.252   0.509  0.2343 -0.2546  0.3555
 1536SOL     OW 5915   0.830   5.448   6.358 -0.1603 -0.2177  0.5051
 1536SOL    HW2 5916   0.765   5.476   6.422 -0.2222 -1.0057  0.7853
 1536SOL    HW3 5917   0.814   5.504   6.282 -0.1748  0.6344  1.1152
 1536SOL    MW4 5918   0.819   5.459   6.357  0.1499 -0.0058  1.1705
 1537SOL     OW 5919   3.177   1.119   2.547 -0.1263  0.0824  0.0521
 1537SOL    HW2 5920   3.184   1.167   2.629  0.4918 -0.1631  0.1520
 1537SOL    HW3 5921   3.167   1.186   2.479  1.1286  0.3800  0.1460
 1537SOL    MW4 5922   3.176   1.134   2.549 -0.0911  0.3173  0.0376
 1538SOL     OW 5923   1.443   0.447   3.382  0.3676 -0.2938 -0.4719
 1538SOL    HW2 5924   1.403   0.534   3.372  3.1228  1.1286 -0.2722
 1538SOL    HW3 5925   1.388   0.388   3.331 -2.8290  1.1189  1.0849
 1538SOL    MW4 5926   1.430   0.451   3.374  0.5854  0.2304  0.0486
 1539SOL     OW 5927   2.607   3.838   5.526 -0.2436 -0.4436  0.1949
 1539SOL    HW2 5928   2.555   3.778   5.472  0.5305 -1.1966  0.2840
 1539SOL    HW3 5929   2.696   3.827   5.494  0.0395 -0.0148  0.8416
 1539SOL    MW4 5930   2.612   3.829   5.514  0.0782 -0.9757  0.0959
 1540SOL     OW 5931   5.429   0.684   3.688 -0.3258 -0.0341  0.2986
 1540SOL    HW2 5932   5.416   0.760   3.745  0.3164 -0.5200  1.1162
 1540SOL    HW3 5933   5.410   0.717   3.600 -2.2443  0.5067  0.8541
 1540SOL    MW4 5934   5.425   0.699   3.684  0.4352 -0.6896  0.8971
 1541SOL     OW 5935   0.615   6.150   4.769  0.0276  0.0836 -0.4692
 1541SOL    HW2 5936   0.552   6.213   4.806 -1.4574 -1.9848  0.7349
 1541SOL    HW3 5937   0.699   6.175   4.808 -0.8175  0.3620  1.3153
 1541SOL    MW4 5938   0.617   6.162   4.779 -0.3168  0.3146  0.1602
 1542SOL     OW 5939   3.151   2.509   4.389  0.2930  0.2241  0.0831
 1542SOL    HW2 5940   3.065   2.476   4.416  0.2648  0.4244  0.2461
 1542SOL    HW3 5941   3.199   2.431   4.361  0.1952  0.0591  0.3676
 1542SOL    MW4 5942   3.146   2.494   4.389  0.6183 -0.0510  0.3397
 1543SOL     OW 5943   4.086   2.716   6.429  0.4136  0.0540  0.3032
 1543SOL    HW2 5944   4.126   2.709   6.516  1.3309 -1.0586 -0.1762
 1543SOL    HW3 5945   4.154   2.685   6.370 -0.5543 -0.1559 -0.7218
 1543SOL    MW4 5946   4.100   2.711   6.433  0.2553  0.4703 -0.3066
 1544SOL     OW 5947   2.103   2.461   5.209  0.2251 -0.8741 -0.0040
 1544SOL    HW2 5948   2.159   2.394   5.248  0.7808 -0.8362 -0.7061
 1544SOL    HW3 5949   2.158   2.503   5.143 -0.3110 -0.1335  0.0007
 1544SOL    MW4 5950   2.118   2.458   5.205  0.4865 -0.3747  0.1310
 1545SOL     OW 5951   4.316   1.093   5.369 -0.1983  0.2119  0.0995
 1545SOL    HW2 5952   4.305   1.098   5.274 -2.3336 -0.3715  0.2654
 1545SOL    HW3 5953   4.313   1.184   5.398  1.1384  0.4468 -0.4172
 1545SOL    MW4 5954   4.314   1.106   5.360  0.4708  0.2936 -0.1118
 1546SOL     OW 5955   2.795   5.001   5.220  0.1699 -0.2565  0.0309
 1546SOL    HW2 5956   2.856   5.074   5.220  0.1474 -0.1923  1.9252
 1546SOL    HW3 5957   2.850   4.924   5.204  0.1770  0.1362 -2.0740
 1546SOL    MW4 5958   2.810   5.000   5.218 -0.0444 -0.4741  0.1866
 1547SOL     OW 5959   5.365   4.607   4.531 -0.2500 -0.2090  0.6365
 1547SOL    HW2 5960   5.288   4.641   4.485  1.0993  0.2869 -1.3976
 1547SOL    HW3 5961   5.437   4.661   4.500  1.0707 -1.2042  1.8329
 1547SOL    MW4 5962   5.364   4.619   4.521  0.0515  0.1790 -0.0359
 1548SOL     OW 5963   5.682   1.276   5.305  0.2225  0.1804 -0.4224
 1548SOL    HW2 5964   5.634   1.245   5.383  1.3308  1.4907  0.8281
 1548SOL    HW3 5965   5.654   1.217   5.235 -0.3899 -1.4036  1.0869
 1548SOL    MW4 5966   5.672   1.264   5.306 -0.2087 -0.0640  0.2357
 1549SOL     OW 5967   0.150   3.171   2.794  0.3551 -0.1253  0.2634
 1549SOL    HW2 5968   0.093   3.095   2.784  0.1076 -0.1233  1.5057
 1549SOL    HW3 5969   0.151   3.212   2.708 -0.9891 -0.5009  0.0561
 1549SOL    MW4 5970   0.143   3.166   2.782 -0.4992  0.2806 -0.2869
 1550SOL     OW 5971   5.860   0.080   5.524  0.1492 -0.0941 -0.4998
 1550SOL    HW2 5972   5.775   0.058   5.563  0.2309 -1.4821 -1.0402
 1550SOL    HW3 5973   5.839   0.119   5.440  0.0451 -0.5604 -0.6912
 1550SOL    MW4 5974   5.846   0.082   5.518  0.6288 -0.4134 -0.1957
 1551SOL     OW 5975   0.860   1.303   2.939 -0.2984  0.3188 -0.3416
 1551SOL    HW2 5976   0.804   1.228   2.957  1.0937 -0.5736  0.3998
 1551SOL    HW3 5977   0.890   1.332   3.025 -0.0487  1.1297 -0.6897
 1551SOL    MW4 5978   0.856   1.297   2.953  0.1294  0.1664 -0.0908
 1552SOL     OW 5979   5.311   3.503   5.498  0.1938  0.3927 -0.1402
 1552SOL    HW2 5980   5.366   3.491   5.575  0.7567 -0.7093 -0.6888
 1552SOL    HW3 5981   5.346   3.442   5.433 -1.2546  0.1434 -0.7394
 1552SOL    MW4 5982   5.323   3.494   5.499 -0.1339 -0.4985  0.2494
 1553SOL     OW 5983   2.757   3.282   2.772  0.2291  0.1158  0.8285
 1553SOL    HW2 5984   2.797   3.245   2.851 -0.3976  0.6595  1.4164
 1553SOL    HW3 5985   2.669   3.246   2.770  0.3071 -0.0463  0.2669
 1553SOL    MW4 5986   2.751   3.273   2.782  0.1630  0.0718  0.3675
 1554SOL     OW 5987   6.059   4.842   4.945  0.0140  0.2651  0.5775
 1554SOL    HW2 5988   6.024   4.885   5.023  2.3743  0.8819  1.3997
 1554SOL    HW3 5989   6.040   4.749   4.959  1.0910  0.2533  2.3738
 1554SOL    MW4 5990   6.052   4.835   4.957  0.0413 -0.5460 -0.3778
 1555SOL     OW 5991   0.132   3.563   2.785 -0.0879  0.0839  0.4880
 1555SOL    HW2 5992   0.223   3.549   2.810 -0.1930 -1.9252 -0.1057
 1555SOL    HW3 5993   0.083   3.495   2.830 -1.4876  1.6966  1.5437
 1555SOL    MW4 5994   0.138   3.552   2.794  0.1668  0.3570 -0.0226
 1556SOL     OW 5995   1.829   2.756   1.433  0.5630 -0.1960 -0.2055
 1556SOL    HW2 5996   1.902   2.806   1.468  0.9795  1.0876 -2.6802
 1556SOL    HW3 5997   1.765   2.822   1.405 -0.4401 -1.1973 -0.3646
 1556SOL    MW4 5998   1.830   2.771   1.434 -0.0158  0.5750  0.0008
 1557SOL     OW 5999   2.708   2.611   0.384 -0.4801 -0.0218 -0.2782
 1557SOL    HW2 6000   2.785   2.643   0.430  0.1890 -2.4867  0.4460
 1557SOL    HW3 6001   2.733   2.613   0.291 -1.0134  2.7791 -0.4692
 1557SOL    MW4 6002   2.721   2.616   0.378 -0.3859  0.1758 -0.0403
 1558SOL     OW 6003   5.649   4.989   4.254  0.7303  0.5813  0.0064
 1558SOL    HW2 6004   5.716   4.946   4.201  0.8092  1.5046 -0.6731
 1558SOL    HW3 6005   5.580   5.012   4.191 -0.7289 -1.2414  0.8357
 1558SOL    MW4 6006   5.648   4.987   4.239  0.0503  0.6863 -0.1690
 1559SOL     OW 6007   0.451   0.526   5.138  0.0095 -0.0750  0.1889
 1559SOL    HW2 6008   0.458   0.431   5.150 -0.0150 -0.2805 -1.2477
 1559SOL    HW3 6009   0.524   0.562   5.189  1.7185 -1.0620 -1.4531
 1559SOL    MW4 6010   0.462   0.518   5.147 -0.1008  0.4175 -0.2845
 1560SOL     OW 6011   6.188   1.497   0.823  0.3087 -0.1171 -0.1325
 1560SOL    HW2 6012   6.109   1.456   0.857 -0.8484  1.2492 -1.0749
 1560SOL    HW3 6013   6.178   1.590   0.844  1.2594  0.2070 -1.0041
 1560SOL    MW4 6014   6.176   1.504   0.830 -0.5628 -0.3050 -0.1801
 1561SOL     OW 6015   5.365   5.518   6.353  0.3323  0.5927 -0.1402
 1561SOL    HW2 6016   5.449   5.520   6.307  0.2425 -1.1359 -0.4713
 1561SOL    HW3 6017   5.311   5.582   6.307  1.2229  1.1431 -0.4372
 1561SOL    MW4 6018   5.369   5.527   6.341  0.1742  0.3946 -0.3944
 1562SOL     OW 6019   2.881   1.337   3.871 -0.2807 -0.3908  0.4435
 1562SOL    HW2 6020   2.914   1.362   3.785 -1.0899 -0.2041  0.1716
 1562SOL    HW3 6021   2.905   1.410   3.928 -0.7217  0.0127  0.1252
 1562SOL    MW4 6022   2.888   1.350   3.867  0.1171  0.3013  0.6008
 1563SOL     OW 6023   6.375   2.021   4.843 -0.0975  0.3519  0.0868
 1563SOL    HW2 6024   6.378   1.935   4.884 -0.2615 -0.7594 -2.0839
 1563SOL    HW3 6025   6.336   2.078   4.909 -1.4621 -1.5687  1.0206
 1563SOL    MW4 6026   6.371   2.017   4.857  0.0479  0.7065  0.4093
 1564SOL     OW 6027   5.134   3.730   5.258 -0.3873 -0.4395  0.9012
 1564SOL    HW2 6028   5.070   3.741   5.187  1.5502  2.1817 -0.6456
 1564SOL    HW3 6029   5.135   3.815   5.302  1.4640 -0.6434  1.3240
 1564SOL    MW4 6030   5.126   3.743   5.254 -0.1635  0.1674 -0.8007
 1565SOL     OW 6031   4.010   5.393   5.891  0.1721  0.0771 -0.4639
 1565SOL    HW2 6032   4.024   5.319   5.833 -0.1798 -0.5505  0.2381
 1565SOL    HW3 6033   3.919   5.384   5.921  0.2158  0.6244 -0.1472
 1565SOL    MW4 6034   4.000   5.382   5.887  0.3668  0.3446 -0.5070
 1566SOL     OW 6035   2.479   3.621   4.086  0.3616  0.9490 -0.4366
 1566SOL    HW2 6036   2.536   3.679   4.136  0.8012  0.7400 -0.6917
 1566SOL    HW3 6037   2.481   3.656   3.997 -1.1381  1.8698 -0.1542
 1566SOL    MW4 6038   2.487   3.633   4.081 -0.1210  0.2231  0.5072
 1567SOL     OW 6039   2.615   5.353   1.226  0.0222 -0.0009  0.0963
 1567SOL    HW2 6040   2.636   5.321   1.139  1.1568 -0.1753  0.4243
 1567SOL    HW3 6041   2.627   5.448   1.221 -1.8915  0.2521 -0.4678
 1567SOL    MW4 6042   2.619   5.361   1.214  0.2198  0.5966 -0.0011
 1568SOL     OW 6043   0.256   1.909   3.749  0.3298  0.0986  0.6003
 1568SOL    HW2 6044   0.229   1.821   3.775  0.4039  0.2242  1.1046
 1568SOL    HW3 6045   0.325   1.894   3.684  1.4102 -0.2228  1.7924
 1568SOL    MW4 6046   0.261   1.896   3.744 -0.3363 -0.0771  0.1758
 1569SOL     OW 6047   4.462   3.431   1.752  0.3308 -0.0067  0.3908
 1569SOL    HW2 6048   4.442   3.338   1.740  1.7493 -0.2560 -0.3538
 1569SOL    HW3 6049   4.540   3.445   1.698  0.2060  1.5962  0.5860
 1569SOL    MW4 6050   4.470   3.421   1.743 -0.0196 -0.5006  0.4758
 1570SOL     OW 6051   1.206   4.388   4.391 -0.0346  0.6640  0.2742
 1570SOL    HW2 6052   1.208   4.296   4.367  1.9433  0.0468  2.4162
 1570SOL    HW3 6053   1.296   4.418   4.377 -0.5214  2.1121  0.1243
 1570SOL    MW4 6054   1.218   4.380   4.386  0.2124 -0.2105 -0.7886
 1571SOL     OW 6055   3.244   6.226   0.661  0.0075 -0.2163 -0.1533
 1571SOL    HW2 6056   3.188   6.298   0.691 -0.1098 -0.4912  0.2899
 1571SOL    HW3 6057   3.193   6.147   0.679  0.0641 -0.4091 -0.7951
 1571SOL    MW4 6058   3.230   6.225   0.667 -0.9311  0.6970  0.5695
 1572SOL     OW 6059   6.107   5.941   2.433 -0.2951  0.0162 -0.2825
 1572SOL    HW2 6060   6.191   5.895   2.437 -0.2673  0.1279  0.7729
 1572SOL    HW3 6061   6.044   5.873   2.408  0.1229 -0.0309 -1.2500
 1572SOL    MW4 6062   6.109   5.926   2.431  0.0638  0.1561  0.3819
 1573SOL     OW 6063   4.577   4.544   2.830 -0.1596  0.0278 -0.5795
 1573SOL    HW2 6064   4.600   4.633   2.804  1.0403 -0.1664 -0.2420
 1573SOL    HW3 6065   4.482   4.540   2.820 -0.1511  1.1289 -1.2535
 1573SOL    MW4 6066   4.568   4.555   2.825  0.5766  0.5671 -0.3382
 1574SOL     OW 6067   5.523   4.720   1.244 -0.3286  0.2157 -0.0819
 1574SOL    HW2 6068   5.590   4.693   1.307  0.4544 -0.5994 -1.2290
 1574SOL    HW3 6069   5.544   4.811   1.225 -0.1714  0.2707  0.3445
 1574SOL    MW4 6070   5.535   4.728   1.250  0.0594  0.6398  0.8864
 1575SOL     OW 6071   3.970   3.130   2.199  0.2037 -0.0112 -0.1838
 1575SOL    HW2 6072   4.012   3.195   2.141 -1.5395 -0.1173 -1.6526
 1575SOL    HW3 6073   3.938   3.062   2.139  0.5075 -1.3962  1.1732
 1575SOL    MW4 6074   3.971   3.130   2.183  0.0682  0.1186  0.1434
 1576SOL     OW 6075   2.152   5.250   0.548 -0.2373 -0.5587 -0.1919
 1576SOL    HW2 6076   2.191   5.192   0.482  2.4755 -0.6159  1.3112
 1576SOL    HW3 6077   2.184   5.338   0.525 -3.6793  0.4305 -1.9909
 1576SOL    MW4 6078   2.161   5.254   0.536 -0.1092  0.2219  0.5541
 1577SOL     OW 6079   0.637   5.003   1.631  0.5318  0.2412  0.4303
 1577SOL    HW2 6080   0.642   4.969   1.542  0.9348  2.0998 -0.3060
 1577SOL    HW3 6081   0.601   5.091   1.621  2.3946  1.2571  1.8508
 1577SOL    MW4 6082   0.633   5.011   1.618 -0.2304  0.4850 -0.6035
 1578SOL     OW 6083   4.045   3.010   4.751 -0.0440 -0.0273 -0.2572
 1578SOL    HW2 6084   4.114   2.984   4.812 -2.0041 -0.1083  2.0734
 1578SOL    HW3 6085   4.000   3.081   4.796 -2.6679 -1.2516 -0.8121
 1578SOL    MW4 6086   4.049   3.016   4.765  0.2330 -0.0491 -0.3134
 1579SOL     OW 6087   3.985   4.372   4.334 -0.5386 -0.0038 -0.0794
 1579SOL    HW2 6088   3.940   4.360   4.417  0.9067  0.9881  0.8966
 1579SOL    HW3 6089   4.074   4.340   4.350 -0.6781 -1.4010 -1.7867
 1579SOL    MW4 6090   3.991   4.366   4.347  0.0655  0.2957  0.3970
 1580SOL     OW 6091   1.606   0.032   1.484  0.0481  0.1615  0.4992
 1580SOL    HW2 6092   1.560   0.115   1.476 -0.2821 -0.1866 -1.8580
 1580SOL    HW3 6093   1.538  -0.032   1.506 -0.2086  0.0731 -0.4923
 1580SOL    MW4 6094   1.591   0.034   1.486 -0.1953 -0.1070 -0.0798
 1581SOL     OW 6095   3.216   4.895   3.277  0.1611 -0.3574  0.5708
 1581SOL    HW2 6096   3.162   4.961   3.320 -0.2435 -1.1417  1.3120
 1581SOL    HW3 6097   3.275   4.864   3.346  0.2347 -0.8803  0.2787
 1581SOL    MW4 6098   3.217   4.899   3.292 -0.0784 -1.2682  0.3683
 1582SOL     OW 6099   3.314   5.179   2.644  0.4858  0.0722 -0.0218
 1582SOL    HW2 6100   3.269   5.123   2.707  0.9279  0.1757  0.3910
 1582SOL    HW3 6101   3.404   5.182   2.674  0.9355 -0.6873 -1.2279
 1582SOL    MW4 6102   3.320   5.172   2.656 -0.2913  0.4365  0.2094
 1583SOL     OW 6103   4.459   4.512   0.934 -0.2092 -0.1397  0.1865
 1583SOL    HW2 6104   4.428   4.565   1.008  1.8562  0.6286  0.5539
 1583SOL    HW3 6105   4.518   4.570   0.886 -0.4664 -1.0673 -1.3330
 1583SOL    MW4 6106   4.463   4.527   0.937 -0.9273  0.6098  0.3486
 1584SOL     OW 6107   1.719   3.111   1.752 -0.3036  0.3645 -0.3003
 1584SOL    HW2 6108   1.723   3.196   1.710 -1.1236 -0.0716 -1.3184
 1584SOL    HW3 6109   1.664   3.125   1.829  1.1946  1.1654  0.6643
 1584SOL    MW4 6110   1.712   3.124   1.757 -0.2762 -0.0557  0.6597
 1585SOL     OW 6111   5.826   4.921   5.309  0.1820 -0.2552 -0.4844
 1585SOL    HW2 6112   5.781   4.855   5.257  0.8509 -0.7482 -0.4424
 1585SOL    HW3 6113   5.911   4.932   5.267 -0.2512  1.2450 -1.0263
 1585SOL    MW4 6114   5.831   4.914   5.297  0.4622 -0.0508 -0.5743
 1586SOL     OW 6115   3.851   5.862   2.722 -0.1363 -0.7023  0.4795
 1586SOL    HW2 6116   3.928   5.919   2.724 -1.6665  1.4938  0.7486
 1586SOL    HW3 6117   3.875   5.787   2.776  1.5281  0.2698  1.1736
 1586SOL    MW4 6118   3.865   5.860   2.729 -0.3801 -0.2181 -0.1287
 1587SOL     OW 6119   0.452   6.243   0.919  0.6024  0.0005  0.5940
 1587SOL    HW2 6120   0.474   6.269   0.830  0.3462  0.0325  0.5391
 1587SOL    HW3 6121   0.374   6.187   0.909  1.5472 -1.3643  0.6409
 1587SOL    MW4 6122   0.444   6.239   0.906 -0.1922 -0.4408  0.1635
 1588SOL     OW 6123   2.872   0.466   5.644 -0.7462  0.0623  0.1335
 1588SOL    HW2 6124   2.941   0.504   5.699  1.1874 -0.4991 -1.7548
 1588SOL    HW3 6125   2.824   0.542   5.612  1.1485  0.8037 -1.1492
 1588SOL    MW4 6126   2.875   0.481   5.647 -0.2908  0.2489  0.0598
 1589SOL     OW 6127   3.205   4.018   5.084 -0.7820 -0.0405 -0.1661
 1589SOL    HW2 6128   3.222   3.924   5.084 -0.1646  0.0272 -1.8614
 1589SOL    HW3 6129   3.223   4.046   5.174  2.2378 -1.0349 -0.3467
 1589SOL    MW4 6130   3.210   4.010   5.096 -0.2244 -0.2824  0.2508
 1590SOL     OW 6131   2.978   4.389   4.120 -0.3105  0.0502 -0.0742
 1590SOL    HW2 6132   3.020   4.316   4.166  5.0330  2.3734 -0.4858
 1590SOL    HW3 6133   2.927   4.434   4.187  0.9451 -0.9616  1.6326
 1590SOL    MW4 6134   2.977   4.386   4.135 -0.0926  0.6613 -0.3150
 1591SOL     OW 6135   4.724   2.394   5.031 -0.2880 -0.3214  0.1252
 1591SOL    HW2 6136   4.775   2.459   4.982  1.2363 -0.6008  1.2316
 1591SOL    HW3 6137   4.722   2.317   4.974  2.0777 -0.8908  0.6815
 1591SOL    MW4 6138   4.731   2.393   5.017  0.4168 -0.7768 -0.0949
 1592SOL     OW 6139   0.105   1.248   0.057 -0.3298  0.1171  0.3322
 1592SOL    HW2 6140   0.062   1.238  -0.028 -2.0037 -0.6626  1.2409
 1592SOL    HW3 6141   0.199   1.240   0.037 -0.7694 -4.0733 -0.9810
 1592SOL    MW4 6142   0.112   1.246   0.043  0.1285 -0.1879  0.1035
 1593SOL     OW 6143   3.179   2.727   2.646 -0.0792 -0.4707 -0.3519
 1593SOL    HW2 6144   3.223   2.732   2.730 -2.5198  1.2528  0.9613
 1593SOL    HW3 6145   3.164   2.818   2.621 -1.3210 -0.9674 -1.5758
 1593SOL    MW4 6146   3.183   2.740   2.653  0.2143  0.5035  0.0173
 1594SOL     OW 6147   1.317   5.039   4.452  0.2727 -0.1673  0.2296
 1594SOL    HW2 6148   1.260   5.082   4.516 -2.8232  0.1800 -2.4793
 1594SOL    HW3 6149   1.315   4.946   4.478 -2.3337 -0.3112 -0.1942
 1594SOL    MW4 6150   1.309   5.032   4.464  0.7758 -0.3774 -0.2802
 1595SOL     OW 6151   4.856   4.262   3.140 -0.1192 -0.0697  0.3193
 1595SOL    HW2 6152   4.860   4.198   3.069 -1.4098  1.0932 -0.8594
 1595SOL    HW3 6153   4.941   4.257   3.182  0.7725 -0.6308 -1.4566
 1595SOL    MW4 6154   4.867   4.253   3.136  0.1130 -0.0102  0.2981
 1596SOL     OW 6155   6.107   6.310   2.315  0.0701 -0.2836 -0.5889
 1596SOL    HW2 6156   6.061   6.393   2.332  1.1974  0.4620 -1.1050
 1596SOL    HW3 6157   6.176   6.307   2.382  0.2736 -0.6190 -0.8140
 1596SOL    MW4 6158   6.110   6.321   2.326  0.0677 -0.1792  0.1057
 1597SOL     OW 6159   5.072   3.466   3.364 -0.2695 -0.0438 -0.1319
 1597SOL    HW2 6160   5.100   3.426   3.446  0.5283  0.9512  0.1104
 1597SOL    HW3 6161   4.985   3.430   3.348  0.2953 -1.6529  0.1845
 1597SOL    MW4 6162   5.064   3.456   3.372  0.2341 -0.1598  0.5915
 1598SOL     OW 6163   2.153   2.108   4.745  0.5911 -0.0722 -0.6535
 1598SOL    HW2 6164   2.113   2.195   4.751  1.4525  0.3426 -0.7762
 1598SOL    HW3 6165   2.083   2.048   4.771 -0.0809  0.6369 -0.7687
 1598SOL    MW4 6166   2.138   2.112   4.749 -0.4389 -0.4438  0.4299
 1599SOL     OW 6167   4.172   5.344   1.045  0.1883 -0.3254  0.2216
 1599SOL    HW2 6168   4.180   5.413   0.978 -1.6260 -0.1279  0.1552
 1599SOL    HW3 6169   4.158   5.264   0.995 -1.7366 -0.0934  0.3188
 1599SOL    MW4 6170   4.171   5.343   1.029 -0.4661  0.1123  0.0039
 1600SOL     OW 6171   2.705   3.814   4.679  0.4474  0.3439 -0.0291
 1600SOL    HW2 6172   2.786   3.830   4.631 -0.0294 -0.1683 -1.0614
 1600SOL    HW3 6173   2.698   3.718   4.681  0.1137  0.3784  0.4726
 1600SOL    MW4 6174   2.715   3.803   4.673  0.6094  0.1282 -0.1999
 1601SOL     OW 6175   6.109   6.355   4.032 -0.2112 -0.5277  0.0143
 1601SOL    HW2 6176   6.054   6.311   3.967  0.9239 -1.0827 -0.6098
 1601SOL    HW3 6177   6.196   6.317   4.018  0.7065  1.5564 -0.2006
 1601SOL    MW4 6178   6.113   6.344   4.021  0.0342  0.1377  0.2530
 1602SOL     OW 6179   6.287   2.264   4.152  0.0877 -0.4509 -0.3315
 1602SOL    HW2 6180   6.351   2.309   4.097  0.0545 -0.8778 -0.7262
 1602SOL    HW3 6181   6.223   2.331   4.174  0.8281  0.0681  0.3366
 1602SOL    MW4 6182   6.287   2.279   4.148 -0.2164  0.0578  0.1496
 1603SOL     OW 6183   4.883   0.237   5.002  0.3575 -0.5924 -0.2195
 1603SOL    HW2 6184   4.838   0.177   5.061  1.9685 -2.5913 -0.8612
 1603SOL    HW3 6185   4.818   0.259   4.935 -0.6081 -0.6796  0.6770
 1603SOL    MW4 6186   4.868   0.232   5.001 -0.1160 -0.0748  0.2207
 1604SOL     OW 6187   5.181   3.784   0.693  0.1165 -0.1192  0.3465
 1604SOL    HW2 6188   5.179   3.693   0.723  2.7060 -0.5954 -0.6789
 1604SOL    HW3 6189   5.091   3.803   0.667 -0.7144 -1.9813  1.6574
 1604SOL    MW4 6190   5.169   3.775   0.694  0.2231 -0.1192  0.7223
 1605SOL     OW 6191   3.693   5.787   5.002  0.3492  0.1072 -0.7092
 1605SOL    HW2 6192   3.673   5.733   5.078  3.0102  0.7969  0.6008
 1605SOL    HW3 6193   3.673   5.732   4.926 -0.3009 -1.4053  0.5205
 1605SOL    MW4 6194   3.688   5.773   5.002 -0.2888 -0.3458 -0.2402
 1606SOL     OW 6195   1.843   1.980   1.634 -0.3737 -0.7352  0.4561
 1606SOL    HW2 6196   1.831   2.075   1.634  0.2633 -0.6185  2.3059
 1606SOL    HW3 6197   1.886   1.962   1.550 -0.9866  0.5280 -0.1565
 1606SOL    MW4 6198   1.847   1.990   1.623 -0.5144  0.6262  0.0236
 1607SOL     OW 6199   4.280   4.496   2.863 -0.2187 -0.0304 -0.1498
 1607SOL    HW2 6200   4.192   4.494   2.901  0.7072  0.8247  2.2822
 1607SOL    HW3 6201   4.271   4.548   2.783 -1.7146  1.2254  0.7659
 1607SOL    MW4 6202   4.267   4.503   2.858  0.2851  0.3577 -0.2000
 1608SOL     OW 6203   2.607   3.601   2.497  0.0012 -0.1120 -0.4881
 1608SOL    HW2 6204   2.572   3.512   2.502  0.0154 -0.1279 -0.6575
 1608SOL    HW3 6205   2.688   3.592   2.448  0.0744 -0.0259 -0.3837
 1608SOL    MW4 6206   2.613   3.588   2.491 -0.3989  0.1930  0.2084
 1609SOL     OW 6207   3.607   3.972   5.022  0.5978 -0.3584 -0.0944
 1609SOL    HW2 6208   3.565   3.954   4.938  0.5639  2.1954 -0.7171
 1609SOL    HW3 6209   3.692   4.009   4.999  1.5570 -1.7615  1.0776
 1609SOL    MW4 6210   3.613   3.975   5.008 -0.6840  0.4560  0.2735
 1610SOL     OW 6211   3.133   3.134   3.991  0.3108 -0.0935  0.3270
 1610SOL    HW2 6212   3.148   3.046   3.956 -0.2397 -0.0696  0.0270
 1610SOL    HW3 6213   3.148   3.125   4.085  0.6106 -0.4255  0.2514
 1610SOL    MW4 6214   3.137   3.121   3.999  0.0442  0.6287  0.5719
 1611SOL     OW 6215   5.746   1.325   0.672 -0.7231  0.0680 -0.3172
 1611SOL    HW2 6216   5.824   1.373   0.645 -0.0121 -0.8044  0.1343
 1611SOL    HW3 6217   5.731   1.261   0.602  0.3295 -1.2898  0.6446
 1611SOL    MW4 6218   5.754   1.323   0.659  0.1953  0.4851  0.0961
 1612SOL     OW 6219   6.263   2.819   3.005  0.1830 -0.3807  0.1065
 1612SOL    HW2 6220   6.283   2.727   3.024 -0.3626 -0.1788  1.7780
 1612SOL    HW3 6221   6.282   2.865   3.086 -2.9684  0.4400  0.5003
 1612SOL    MW4 6222   6.268   2.813   3.018  0.4278  0.6446  0.0575
 1613SOL     OW 6223  -0.002   1.873   5.957  0.0016  0.0388  0.4332
 1613SOL    HW2 6224   0.048   1.802   5.996 -0.8575 -1.4626 -1.0580
 1613SOL    HW3 6225  -0.005   1.852   5.864 -0.7166  1.7764  0.0235
 1613SOL    MW4 6226   0.004   1.861   5.950  0.3881  0.9377 -0.7172
 1614SOL     OW 6227   4.810   6.290   6.340 -0.1165  0.8868 -0.0730
 1614SOL    HW2 6228   4.821   6.379   6.306  0.1027  0.6486 -0.6481
 1614SOL    HW3 6229   4.720   6.267   6.317 -1.4884  2.2742  3.2891
 1614SOL    MW4 6230   4.799   6.299   6.332  0.3912  1.3740 -0.3088
 1615SOL     OW 6231   3.958   5.490   4.975  0.0704 -0.2873 -0.0375
 1615SOL    HW2 6232   3.934   5.463   5.064  0.0988 -1.0984 -0.2677
 1615SOL    HW3 6233   3.874   5.511   4.934  0.0062 -0.4147  0.0254
 1615SOL    MW4 6234   3.943   5.489   4.982 -0.6451 -0.0486  0.1378
 1616SOL     OW 6235   0.002   4.744   3.873  0.0251 -0.0326 -0.1030
 1616SOL    HW2 6236   0.017   4.807   3.943 -2.9092  0.2233  0.4501
 1616SOL    HW3 6237  -0.062   4.683   3.909 -0.7967 -0.5049 -2.1984
 1616SOL    MW4 6238  -0.005   4.745   3.887  0.3824 -0.3318 -0.0752
 1617SOL     OW 6239   5.702   4.794   0.275 -0.3427  0.0732  0.2291
 1617SOL    HW2 6240   5.641   4.756   0.339  0.5831  2.1301  2.4635
 1617SOL    HW3 6241   5.789   4.769   0.307  0.2337  2.7957  1.0330
 1617SOL    MW4 6242   5.705   4.786   0.288  0.4236  0.3122  0.0042
 1618SOL     OW 6243   4.129   0.792   0.051  0.1812 -0.0841 -0.0910
 1618SOL    HW2 6244   4.105   0.869  -0.001  2.5293  1.0541  0.3466
 1618SOL    HW3 6245   4.064   0.726   0.029 -1.4845  1.7891 -1.0685
 1618SOL    MW4 6246   4.118   0.794   0.042 -0.2192  0.0605  0.4847
 1619SOL     OW 6247   3.199   1.254   2.796  0.1927  0.5112  0.1828
 1619SOL    HW2 6248   3.160   1.341   2.800  1.2291  1.0392 -0.6514
 1619SOL    HW3 6249   3.287   1.265   2.834  1.1464  0.3397 -1.8686
 1619SOL    MW4 6250   3.206   1.267   2.802  0.0906 -0.3522  0.7098
 1620SOL     OW 6251   3.055   0.583   0.705 -0.0396 -0.1600  0.1177
 1620SOL    HW2 6252   3.042   0.579   0.610  0.7086 -1.2720  0.0378
 1620SOL    HW3 6253   3.003   0.658   0.733 -1.6604 -0.8171 -0.9363
 1620SOL    MW4 6254   3.046   0.592   0.696  0.5121 -0.4014  0.2378
 1621SOL     OW 6255   0.697   4.313   1.892 -0.1358 -0.1441 -0.0209
 1621SOL    HW2 6256   0.621   4.363   1.923 -0.6884 -0.6738 -0.4898
 1621SOL    HW3 6257   0.666   4.222   1.890  0.4992 -0.3592 -0.2587
 1621SOL    MW4 6258   0.683   4.308   1.896 -0.1657 -0.4223 -0.0195
 1622SOL     OW 6259   2.014   0.129   3.621  0.0292  0.4464 -0.4458
 1622SOL    HW2 6260   1.939   0.183   3.595 -0.7882  0.4497  1.7038
 1622SOL    HW3 6261   2.014   0.057   3.559 -1.5686  0.6292 -0.7143
 1622SOL    MW4 6262   2.004   0.127   3.609  0.0250 -0.2480 -0.3195
 1623SOL     OW 6263   0.867   1.211   5.791  0.3575 -0.2544 -0.7414
 1623SOL    HW2 6264   0.947   1.163   5.813 -0.7955 -2.2744 -0.7613
 1623SOL    HW3 6265   0.834   1.170   5.712 -0.2025  1.2278 -1.3226
 1623SOL    MW4 6266   0.873   1.199   5.784 -0.8809  0.1153  0.4529
 1624SOL     OW 6267   1.730   0.995   2.458  0.1119 -0.2148 -0.0561
 1624SOL    HW2 6268   1.694   0.913   2.490  0.4412 -0.6291 -0.7303
 1624SOL    HW3 6269   1.657   1.057   2.460 -0.3532 -0.7515 -0.3562
 1624SOL    MW4 6270   1.716   0.993   2.462 -0.2996  0.3315 -0.5800
 1625SOL     OW 6271   5.568   3.731   3.828 -0.2743 -0.1182 -0.7045
 1625SOL    HW2 6272   5.508   3.800   3.800 -0.6424 -0.1175  0.0577
 1625SOL    HW3 6273   5.632   3.724   3.757 -1.3162 -0.3026 -1.6567
 1625SOL    MW4 6274   5.569   3.739   3.815 -0.1831  0.5389  0.1967
 1626SOL     OW 6275   4.283   4.560   4.100 -0.3273 -0.1431  0.6783
 1626SOL    HW2 6276   4.243   4.610   4.172 -0.4940  0.6427  0.0517
 1626SOL    HW3 6277   4.213   4.552   4.035 -1.3732 -3.9827  2.0393
 1626SOL    MW4 6278   4.269   4.566   4.101  0.7107  0.2568 -0.7396
 1627SOL     OW 6279   5.439   2.831   4.988 -0.1473  0.3663 -0.6119
 1627SOL    HW2 6280   5.399   2.869   4.910 -0.9067  2.1373  0.5733
 1627SOL    HW3 6281   5.364   2.801   5.041  0.3180 -0.1569 -0.2372
 1627SOL    MW4 6282   5.424   2.832   4.985  0.0658  0.0487 -0.1151
 1628SOL     OW 6283   4.615   6.086   3.944 -0.2422  0.4298 -0.5798
 1628SOL    HW2 6284   4.539   6.031   3.925  0.9485 -1.9428  1.0064
 1628SOL    HW3 6285   4.687   6.024   3.958  1.2241  2.3878  1.2361
 1628SOL    MW4 6286   4.614   6.070   3.944 -0.3977 -0.0742  0.2400
 1629SOL     OW 6287   1.650   5.064   5.622  0.0178 -0.4781 -0.1522
 1629SOL    HW2 6288   1.570   5.039   5.669 -0.1622  1.1243  0.4435
 1629SOL    HW3 6289   1.635   5.035   5.532 -0.5300 -1.6715  0.2911
 1629SOL    MW4 6290   1.637   5.057   5.617 -0.3806 -0.1053  0.0676
 1630SOL     OW 6291   4.960   2.053   3.566  0.1493 -0.3801  0.0104
 1630SOL    HW2 6292   4.974   2.069   3.472  0.1308  1.0019  0.2093
 1630SOL    HW3 6293   4.901   1.978   3.569  0.5270 -0.7475 -1.0702
 1630SOL    MW4 6294   4.954   2.046   3.554  0.4434  0.1567  0.2932
 1631SOL     OW 6295   4.492   1.967   3.350  1.0031 -0.2375 -0.1566
 1631SOL    HW2 6296   4.483   1.930   3.438  0.3660  3.3544  1.4642
 1631SOL    HW3 6297   4.403   1.992   3.325  1.4219  0.3844 -1.0626
 1631SOL    MW4 6298   4.479   1.965   3.359 -0.2372  0.4658  0.5931
 1632SOL     OW 6299   1.384   4.179   1.187 -0.2120 -0.1816  0.1358
 1632SOL    HW2 6300   1.479   4.177   1.177 -0.2585 -0.3543 -0.2897
 1632SOL    HW3 6301   1.353   4.222   1.107 -0.6540 -2.3387 -0.9208
 1632SOL    MW4 6302   1.393   4.184   1.175 -0.0280  0.2916  0.5278
 1633SOL     OW 6303   4.956   4.551   6.192  0.2110  0.0552 -0.3780
 1633SOL    HW2 6304   4.921   4.518   6.275  0.7808  0.8123  0.1797
 1633SOL    HW3 6305   4.922   4.641   6.185 -0.3010 -0.1957 -1.2520
 1633SOL    MW4 6306   4.947   4.559   6.202  0.0817 -0.5916  0.0430
 1634SOL     OW 6307   1.541   5.476   4.682 -0.6318 -0.0375 -0.1808
 1634SOL    HW2 6308   1.575   5.540   4.619 -1.6717  0.4671 -0.2484
 1634SOL    HW3 6309   1.547   5.392   4.637  0.6009  0.0182 -0.1515
 1634SOL    MW4 6310   1.546   5.474   4.668 -0.2686 -0.1997  0.8981
 1635SOL     OW 6311   0.142   1.647   3.789 -0.5588 -0.3026  0.2075
 1635SOL    HW2 6312   0.078   1.595   3.740 -0.8047  0.0458  0.1515
 1635SOL    HW3 6313   0.212   1.586   3.810 -0.9817 -0.7289  0.3955
 1635SOL    MW4 6314   0.143   1.632   3.785  0.0293  0.1343 -0.3562
 1636SOL     OW 6315   5.160   2.630   4.870  0.0422  0.0166  0.2439
 1636SOL    HW2 6316   5.068   2.607   4.863 -0.2262  0.9012  0.7531
 1636SOL    HW3 6317   5.195   2.570   4.936  0.3847 -1.8543 -1.5287
 1636SOL    MW4 6318   5.153   2.619   4.878 -0.2979 -0.0399 -0.4730
 1637SOL     OW 6319   1.630   5.284   2.271 -0.1703 -0.8779  0.0494
 1637SOL    HW2 6320   1.588   5.198   2.279 -0.4619 -0.6342  1.2740
 1637SOL    HW3 6321   1.659   5.287   2.180 -1.1185 -1.8368 -0.3171
 1637SOL    MW4 6322   1.628   5.273   2.260  0.7472  0.6548  0.1334
 1638SOL     OW 6323   1.069   2.170   3.070  0.1884  0.2431 -0.4330
 1638SOL    HW2 6324   1.022   2.134   3.144  0.3073  0.7363 -0.1119
 1638SOL    HW3 6325   1.075   2.098   3.007 -1.5664  0.3491 -0.7638
 1638SOL    MW4 6326   1.064   2.156   3.071 -0.6585 -0.5779 -0.3332
 1639SOL     OW 6327   4.049   3.039   4.134 -0.4265  0.3251 -0.0587
 1639SOL    HW2 6328   4.065   2.964   4.077 -0.4044  0.1757  0.1438
 1639SOL    HW3 6329   3.964   3.074   4.104 -0.1597  0.5804 -0.5405
 1639SOL    MW4 6330   4.040   3.034   4.122  0.5214  0.4735  0.1476
 1640SOL     OW 6331   5.378   0.510   6.212 -0.3068  0.1351  0.3975
 1640SOL    HW2 6332   5.329   0.589   6.189  0.2620 -0.1089 -1.8519
 1640SOL    HW3 6333   5.381   0.459   6.131 -0.4203 -2.0961  1.7169
 1640SOL    MW4 6334   5.372   0.513   6.198  0.4082 -0.2672  0.0059
 1641SOL     OW 6335   4.353   2.695   0.855  0.6665  0.1026 -0.3835
 1641SOL    HW2 6336   4.289   2.755   0.891  1.2177 -0.0321  0.8589
 1641SOL    HW3 6337   4.304   2.613   0.841  0.5528 -0.0036  0.5684
 1641SOL    MW4 6338   4.338   2.692   0.858  0.1714 -0.1962 -0.3146
 1642SOL     OW 6339   1.646   0.874   5.430 -0.1304 -0.4992 -0.3542
 1642SOL    HW2 6340   1.673   0.957   5.468  1.7046 -0.7328 -1.0881
 1642SOL    HW3 6341   1.619   0.822   5.506 -2.7322  1.1846  0.0025
 1642SOL    MW4 6342   1.646   0.878   5.445  0.5426  0.1789  0.0462
 1643SOL     OW 6343   5.620   2.990   4.216 -0.1965  0.0809  0.8498
 1643SOL    HW2 6344   5.617   3.000   4.311  2.1364  2.7541  0.7946
 1643SOL    HW3 6345   5.712   2.969   4.198 -0.8863 -1.8017 -0.7705
 1643SOL    MW4 6346   5.632   2.989   4.226 -0.0714  0.1539 -0.8829
 1644SOL     OW 6347   5.903   3.362   5.451 -0.5054 -0.7561  0.1673
 1644SOL    HW2 6348   5.949   3.320   5.525 -0.3310 -1.2706 -0.2294
 1644SOL    HW3 6349   5.812   3.336   5.463 -0.1953 -2.4965 -0.8827
 1644SOL    MW4 6350   5.897   3.353   5.463  0.0485  0.3728 -0.1630
 1645SOL     OW 6351   6.026   5.607   5.250  0.1775 -0.0592  0.0873
 1645SOL    HW2 6352   5.963   5.638   5.316  0.2475  0.7280 -0.1980
 1645SOL    HW3 6353   5.993   5.521   5.224 -0.9226  0.4326 -0.2207
 1645SOL    MW4 6354   6.013   5.600   5.255  0.0446 -0.6448 -0.4809
 1646SOL     OW 6355   0.860   0.980   0.585 -0.4940  0.0410 -0.5979
 1646SOL    HW2 6356   0.832   0.957   0.674  0.6066  0.6403 -0.0669
 1646SOL    HW3 6357   0.786   1.028   0.549 -0.5124  0.8568  0.4552
 1646SOL    MW4 6358   0.847   0.984   0.592 -0.4161  0.0485  0.0501
 1647SOL     OW 6359   5.983   6.234   5.474 -0.7740  0.2588 -0.2109
 1647SOL    HW2 6360   6.049   6.177   5.515 -0.7971 -0.9628 -1.7892
 1647SOL    HW3 6361   5.967   6.302   5.539  1.2382 -0.0278  0.6548
 1647SOL    MW4 6362   5.989   6.235   5.488 -0.1685 -0.1890  0.1492
 1648SOL     OW 6363   4.915   1.287   1.625  0.3605  0.1337  0.0056
 1648SOL    HW2 6364   4.874   1.331   1.699 -0.1202 -1.1305  0.5299
 1648SOL    HW3 6365   5.009   1.291   1.643  0.2250 -0.5524  0.9386
 1648SOL    MW4 6366   4.922   1.293   1.637 -0.1234  0.2892  0.0885
 1649SOL     OW 6367   5.985   2.835   1.930  0.6501 -0.1354  0.1497
 1649SOL    HW2 6368   5.954   2.746   1.915  0.1120  0.2384 -1.0828
 1649SOL    HW3 6369   5.935   2.866   2.006  2.7278 -1.7461  2.3360
 1649SOL    MW4 6370   5.974   2.828   1.938 -0.1397  0.0408  0.6510
 1650SOL     OW 6371   3.345   3.005   0.437 -0.5142 -0.0639  0.1210
 1650SOL    HW2 6372   3.335   3.100   0.430 -0.2315 -0.0829 -0.6003
 1650SOL    HW3 6373   3.382   2.978   0.353 -1.0028 -0.8702  0.1490
 1650SOL    MW4 6374   3.348   3.014   0.425  0.8656  0.9084 -0.1171
 1651SOL     OW 6375   5.725   5.638   5.949 -0.2778  0.5380 -0.1692
 1651SOL    HW2 6376   5.695   5.638   5.858 -0.8140  0.7596  0.0024
 1651SOL    HW3 6377   5.755   5.728   5.964  0.2461  0.3796 -0.2661
 1651SOL    MW4 6378   5.725   5.650   5.939  0.2701  0.3959  0.2992
 1652SOL     OW 6379   1.251   5.303   0.015  0.3200 -0.2474 -0.4407
 1652SOL    HW2 6380   1.302   5.384   0.015  0.5191 -0.3025  2.3212
 1652SOL    HW3 6381   1.159   5.333   0.017  0.3315 -0.1334 -1.2019
 1652SOL    MW4 6382   1.245   5.318   0.015 -0.0106  0.1689 -0.0695
 1653SOL     OW 6383   1.912   0.598   0.780  0.2996  0.2220 -0.7337
 1653SOL    HW2 6384   1.915   0.690   0.806  0.7538  0.4264 -1.4913
 1653SOL    HW3 6385   1.820   0.572   0.793 -0.4179  1.4783 -2.8346
 1653SOL    MW4 6386   1.900   0.606   0.785  0.2261 -0.4802 -0.1576
 1654SOL     OW 6387   2.494   3.477   0.598  0.8743  0.6261  0.5094
 1654SOL    HW2 6388   2.422   3.511   0.651  1.4685  2.6085  0.1150
 1654SOL    HW3 6389   2.549   3.553   0.579  1.4004 -0.2334 -1.8353
 1654SOL    MW4 6390   2.492   3.491   0.602  0.0842 -0.2969 -0.2553
 1655SOL     OW 6391   0.598   2.429   5.024 -0.4524  0.3769  0.0777
 1655SOL    HW2 6392   0.585   2.471   5.109  2.6041  0.7382  0.4750
 1655SOL    HW3 6393   0.536   2.356   5.023 -1.6940  1.3346  1.8918
 1655SOL    MW4 6394   0.588   2.425   5.035 -0.0301  0.3250  0.3710
 1656SOL     OW 6395   1.764   0.353   4.675  0.3231 -0.0012  0.0340
 1656SOL    HW2 6396   1.768   0.395   4.589  0.5854 -0.4341 -0.1678
 1656SOL    HW3 6397   1.671   0.339   4.690  0.3570 -1.3132 -0.8660
 1656SOL    MW4 6398   1.753   0.357   4.666  0.0015 -0.2370  0.6005
 1657SOL     OW 6399   5.452   3.186   4.131  0.3605 -0.3542 -0.4256
 1657SOL    HW2 6400   5.500   3.266   4.108  0.7887 -0.9153 -1.5213
 1657SOL    HW3 6401   5.520   3.122   4.150  0.0185 -0.5956 -0.0091
 1657SOL    MW4 6402   5.467   3.188   4.131  0.0187  0.2511 -0.6812
 1658SOL     OW 6403   3.575   2.969   4.916 -0.5289 -0.1341 -0.5026
 1658SOL    HW2 6404   3.542   2.886   4.882  0.0875 -0.1756 -1.0330
 1658SOL    HW3 6405   3.498   3.014   4.949 -0.9107 -0.7966 -0.4780
 1658SOL    MW4 6406   3.560   2.964   4.916  0.4839 -0.7161 -0.6301
 1659SOL     OW 6407   4.912   2.675   1.738 -0.0500 -0.1999  0.1571
 1659SOL    HW2 6408   4.965   2.609   1.693 -0.3282 -0.7571  0.6290
 1659SOL    HW3 6409   4.860   2.625   1.801  2.0816  0.7234  2.8882
 1659SOL    MW4 6410   4.912   2.660   1.741 -0.2549  0.1952  0.3717
 1660SOL     OW 6411   4.096   2.170   6.400 -0.2892 -0.1612 -0.0114
 1660SOL    HW2 6412   4.030   2.113   6.441 -0.6091 -1.2544 -1.9269
 1660SOL    HW3 6413   4.097   2.143   6.308 -1.0743  3.5023 -1.2478
 1660SOL    MW4 6414   4.087   2.159   6.393 -0.0190  0.3429  0.1470
 1661SOL     OW 6415   2.321   2.318   1.436  0.4399  0.2840 -0.1702
 1661SOL    HW2 6416   2.287   2.237   1.473  1.7132  1.0874  3.0612
 1661SOL    HW3 6417   2.250   2.382   1.450  0.9050  0.5776  0.9713
 1661SOL    MW4 6418   2.307   2.316   1.442 -0.2811 -0.0802  0.4860
 1662SOL     OW 6419   2.885   0.706   3.875  0.1066 -0.0752 -0.0569
 1662SOL    HW2 6420   2.913   0.655   3.951  1.4642  1.8460  0.8244
 1662SOL    HW3 6421   2.846   0.785   3.913  0.4374  0.7349 -1.3692
 1662SOL    MW4 6422   2.883   0.710   3.890  0.0756 -0.4292  0.8448
 1663SOL     OW 6423   0.250   2.980   0.747 -0.3180  0.3826  0.0119
 1663SOL    HW2 6424   0.310   3.047   0.778  2.6454 -1.1491 -1.9661
 1663SOL    HW3 6425   0.226   3.009   0.658  1.0604 -1.1141 -0.8968
 1663SOL    MW4 6426   0.255   2.993   0.739 -0.7697 -0.2182  0.0889
 1664SOL     OW 6427   2.257   5.424   4.421 -0.0807  0.2936  0.1150
 1664SOL    HW2 6428   2.285   5.421   4.513  1.7402 -0.4328 -0.4338
 1664SOL    HW3 6429   2.245   5.517   4.403 -0.1020  0.4725  0.9809
 1664SOL    MW4 6430   2.259   5.436   4.431 -0.1091 -0.4190 -0.5556
 1665SOL     OW 6431   1.552   3.106   1.986  0.0813 -0.2700  0.2029
 1665SOL    HW2 6432   1.477   3.162   1.969 -1.6047 -2.3574  0.3790
 1665SOL    HW3 6433   1.517   3.017   1.984  2.8397 -1.4369 -1.2031
 1665SOL    MW4 6434   1.538   3.101   1.984 -0.4025  0.3000  0.0655
 1666SOL     OW 6435   6.318   4.298   0.200  0.1861 -0.3571  0.6843
 1666SOL    HW2 6436   6.270   4.362   0.148  0.8512 -1.6536 -1.6351
 1666SOL    HW3 6437   6.256   4.272   0.269 -0.7748  1.3049  0.5059
 1666SOL    MW4 6438   6.303   4.303   0.202  0.2628 -0.2797 -0.2990
 1667SOL     OW 6439   5.743   4.651   3.697  0.1361 -0.1794  0.4692
 1667SOL    HW2 6440   5.679   4.719   3.718  0.2982 -0.6427  2.6471
 1667SOL    HW3 6441   5.812   4.697   3.649 -0.1165  1.0410  1.2399
 1667SOL    MW4 6442   5.743   4.666   3.693 -0.3830  0.7198 -0.2476
 1668SOL     OW 6443   1.530   2.155   4.920  0.0865 -0.5627  0.2938
 1668SOL    HW2 6444   1.572   2.220   4.976  0.2261 -0.8798  0.5583
 1668SOL    HW3 6445   1.454   2.201   4.883 -0.2780 -0.4884  1.1074
 1668SOL    MW4 6446   1.525   2.170   4.922 -0.3388 -0.4099 -0.0580
 1669SOL     OW 6447   0.026   0.136   1.512 -0.4009  0.8428  0.5779
 1669SOL    HW2 6448   0.108   0.139   1.562  0.2313  3.4622 -0.4298
 1669SOL    HW3 6449   0.005   0.228   1.496 -2.0998  0.1600 -1.5417
 1669SOL    MW4 6450   0.034   0.149   1.517  0.0041  0.2076 -0.6289
 1670SOL     OW 6451   3.723   2.015   4.235 -0.5673  0.1803 -0.1068
 1670SOL    HW2 6452   3.701   1.985   4.323  1.3719  1.1263  0.7526
 1670SOL    HW3 6453   3.785   1.950   4.202  0.4040  0.9565  0.1273
 1670SOL    MW4 6454   3.728   2.003   4.242  0.3068 -0.0640 -0.3701
 1671SOL     OW 6455   3.645   1.706   2.576 -0.3837  0.3361 -0.4195
 1671SOL    HW2 6456   3.680   1.716   2.664  0.7890  0.1859 -0.8490
 1671SOL    HW3 6457   3.717   1.668   2.526 -1.5267 -1.0409 -1.1010
 1671SOL    MW4 6458   3.659   1.702   2.581  0.4874 -0.6789  0.3353
 1672SOL     OW 6459   0.982   6.400   4.074 -0.4182 -0.4043  0.1968
 1672SOL    HW2 6460   0.888   6.404   4.088 -0.0479  2.0439  3.0946
 1672SOL    HW3 6461   0.997   6.447   3.992 -1.6694 -0.4643 -0.0731
 1672SOL    MW4 6462   0.972   6.407   4.065 -0.0400  0.4891 -0.0483
 1673SOL     OW 6463   0.689   2.436   1.627 -0.5522 -0.4840  0.0586
 1673SOL    HW2 6464   0.623   2.372   1.657 -0.5274 -0.4074  0.2782
 1673SOL    HW3 6465   0.734   2.392   1.555 -0.4709 -0.7547  0.2723
 1673SOL    MW4 6466   0.686   2.421   1.622 -0.6865 -0.1068 -0.5012
 1674SOL     OW 6467   5.619   0.302   6.371  0.2981  0.2709  0.0556
 1674SOL    HW2 6468   5.702   0.294   6.419 -0.6285  1.3715  1.9718
 1674SOL    HW3 6469   5.643   0.348   6.291  1.3695  2.0353  1.2983
 1674SOL    MW4 6470   5.633   0.307   6.367 -0.7074 -0.1019 -0.2270
 1675SOL     OW 6471   2.271   0.149   2.362  0.7355 -0.1941  0.2988
 1675SOL    HW2 6472   2.189   0.171   2.320  0.9626  1.1403  0.4974
 1675SOL    HW3 6473   2.328   0.118   2.291 -0.0989 -1.6795  0.2517
 1675SOL    MW4 6474   2.268   0.148   2.347  0.3461  0.1879  0.3068
 1676SOL     OW 6475   0.606   0.885   5.408  0.0308  0.2245 -0.7488
 1676SOL    HW2 6476   0.626   0.791   5.406 -0.5365 -0.0325  1.9752
 1676SOL    HW3 6477   0.514   0.890   5.381 -0.6137 -0.3171  1.1757
 1676SOL    MW4 6478   0.596   0.873   5.404 -0.1882  0.6580 -0.3562
 1677SOL     OW 6479   3.487   1.706   4.253 -0.3474  0.0695  0.7678
 1677SOL    HW2 6480   3.423   1.667   4.312  0.5142 -1.1184  0.9757
 1677SOL    HW3 6481   3.467   1.666   4.168  0.8786 -1.3332  1.0888
 1677SOL    MW4 6482   3.476   1.695   4.249  0.2948 -0.2168  0.2614
 1678SOL     OW 6483   0.456   3.835   5.576 -0.3911  0.2127 -0.6036
 1678SOL    HW2 6484   0.519   3.900   5.607  0.3768 -0.7345 -0.1216
 1678SOL    HW3 6485   0.396   3.822   5.650 -0.7947  0.6744 -0.8479
 1678SOL    MW4 6486   0.457   3.842   5.590  0.2350 -0.5361 -0.0047
 1679SOL     OW 6487   6.050   1.981   6.298  0.7848 -0.6833  0.0668
 1679SOL    HW2 6488   6.059   2.021   6.384  0.8272  0.6960 -0.5422
 1679SOL    HW3 6489   6.110   1.908   6.298  0.2005 -1.1942  1.4776
 1679SOL    MW4 6490   6.059   1.977   6.309 -0.3353 -0.0501 -0.2439
 1680SOL     OW 6491   2.790   5.645   2.392  0.1761  0.1463  0.1060
 1680SOL    HW2 6492   2.856   5.715   2.394  1.2820 -0.7770 -1.4472
 1680SOL    HW3 6493   2.827   5.580   2.332 -1.9962 -0.5823 -0.5249
 1680SOL    MW4 6494   2.803   5.646   2.384  0.7674 -0.2593 -0.1276
 1681SOL     OW 6495   2.803   4.346   3.776  0.3158  0.8171 -0.0575
 1681SOL    HW2 6496   2.736   4.349   3.845 -1.8364 -0.5897 -1.9491
 1681SOL    HW3 6497   2.874   4.295   3.814 -0.6810  0.3344  1.2333
 1681SOL    MW4 6498   2.803   4.340   3.790  0.0627 -0.4689  0.1809
 1682SOL     OW 6499   4.638   4.233   0.864 -0.1066  0.4642  0.0339
 1682SOL    HW2 6500   4.574   4.174   0.903  2.4734 -1.2154  2.0792
 1682SOL    HW3 6501   4.612   4.321   0.893  0.1934 -0.4766  3.5631
 1682SOL    MW4 6502   4.626   4.237   0.873 -0.0421 -0.4373  0.6699
 1683SOL     OW 6503   4.360   3.174   1.712 -0.3611 -0.6222 -0.1420
 1683SOL    HW2 6504   4.291   3.216   1.661 -0.6575  1.1892  1.6514
 1683SOL    HW3 6505   4.315   3.136   1.788  0.4698 -0.2176  0.5728
 1683SOL    MW4 6506   4.345   3.174   1.715 -0.5195 -0.0282  0.8537
 1684SOL     OW 6507   3.408   1.175   4.217 -0.2418  0.2710 -0.0450
 1684SOL    HW2 6508   3.391   1.106   4.282  3.0880 -1.0678 -0.3732
 1684SOL    HW3 6509   3.368   1.142   4.136  0.2641 -0.7273  0.0954
 1684SOL    MW4 6510   3.401   1.161   4.215  0.1555 -0.3061 -0.6821
 1685SOL     OW 6511   2.547   4.743   4.242 -0.8173  0.3100 -0.1754
 1685SOL    HW2 6512   2.541   4.654   4.277 -0.3505  0.2460 -0.2470
 1685SOL    HW3 6513   2.602   4.734   4.164 -0.3717  0.7341  0.0829
 1685SOL    MW4 6514   2.554   4.730   4.236 -0.1091 -0.3127  0.0346
 1686SOL     OW 6515   5.547   2.545   3.180 -0.4868  0.0786 -0.5592
 1686SOL    HW2 6516   5.624   2.509   3.136  0.0949 -1.2105  1.3693
 1686SOL    HW3 6517   5.579   2.623   3.225 -0.1274 -0.7505  0.6779
 1686SOL    MW4 6518   5.562   2.550   3.181  0.6260  0.3969  0.2177
 1687SOL     OW 6519   4.517   0.678   0.637  0.1979  0.1068 -0.3854
 1687SOL    HW2 6520   4.567   0.697   0.716  1.4713  1.0253 -1.3766
 1687SOL    HW3 6521   4.426   0.685   0.664  0.6072  1.9616  0.6424
 1687SOL    MW4 6522   4.512   0.681   0.651 -0.1728  0.7241 -0.2952
 1688SOL     OW 6523   5.429   0.040   4.702 -0.5335 -0.0000 -0.1086
 1688SOL    HW2 6524   5.472  -0.019   4.764 -2.3495  0.3715  1.6283
 1688SOL    HW3 6525   5.497   0.102   4.677  0.0229  0.5838  2.5245
 1688SOL    MW4 6526   5.443   0.040   4.707 -0.1471 -0.3065 -0.1019
 1689SOL     OW 6527   5.576   3.916   5.928 -0.2493  0.3404 -0.2541
 1689SOL    HW2 6528   5.631   3.995   5.934  0.6993 -0.2980 -0.2989
 1689SOL    HW3 6529   5.523   3.930   5.850 -0.3202  1.0802 -0.0809
 1689SOL    MW4 6530   5.577   3.928   5.918 -0.2517 -0.6020 -0.0558
 1690SOL     OW 6531   1.424   0.278   5.156 -0.1111 -0.4909 -0.5348
 1690SOL    HW2 6532   1.385   0.274   5.069  1.3924 -0.2476 -1.2443
 1690SOL    HW3 6533   1.401   0.365   5.189 -1.1328 -0.7778 -0.4412
 1690SOL    MW4 6534   1.416   0.289   5.149  0.0807 -0.2660 -0.0485
 1691SOL     OW 6535   6.049   5.497   1.436  0.2128 -0.6951  0.3290
 1691SOL    HW2 6536   5.999   5.436   1.383  2.7518 -1.8661 -0.8736
 1691SOL    HW3 6537   6.036   5.467   1.526 -1.3818 -0.7812  0.1079
 1691SOL    MW4 6538   6.041   5.485   1.441 -0.1484  0.4024 -0.0249
 1692SOL     OW 6539   0.566   6.122   5.376  0.0447  0.0855  0.4029
 1692SOL    HW2 6540   0.617   6.144   5.298 -2.5486  0.1648 -1.4252
 1692SOL    HW3 6541   0.594   6.185   5.442  1.3500  0.9366 -0.9086
 1692SOL    MW4 6542   0.576   6.133   5.374  0.1152  0.3291  0.6306
 1693SOL     OW 6543   0.889   2.922   1.367 -0.4127 -0.5258 -0.0937
 1693SOL    HW2 6544   0.941   2.843   1.352 -0.2719 -0.2869 -0.9071
 1693SOL    HW3 6545   0.869   2.955   1.279  0.9312  1.2437  0.2007
 1693SOL    MW4 6546   0.894   2.916   1.353  0.0670  0.5243 -0.3025
 1694SOL     OW 6547   1.174   3.040   2.769 -0.2759  0.1838 -0.1918
 1694SOL    HW2 6548   1.196   2.959   2.815  1.8931 -0.0309 -1.4634
 1694SOL    HW3 6549   1.205   3.110   2.825 -3.4150  0.3355  1.5895
 1694SOL    MW4 6550   1.181   3.038   2.782 -0.3764 -0.4206 -0.2718
 1695SOL     OW 6551   0.443   4.588   5.573  0.4328 -0.2342 -0.1750
 1695SOL    HW2 6552   0.468   4.502   5.540 -0.4992 -0.8869  0.7603
 1695SOL    HW3 6553   0.352   4.599   5.545  0.4582  0.3348 -0.0553
 1695SOL    MW4 6554   0.434   4.578   5.565 -0.3774 -0.2840 -0.7914
 1696SOL     OW 6555   3.971   3.150   3.847 -0.0576  0.7449 -0.1014
 1696SOL    HW2 6556   4.065   3.138   3.829 -0.0953  1.4157 -0.7608
 1696SOL    HW3 6557   3.929   3.073   3.810  0.1079  1.0235 -0.8743
 1696SOL    MW4 6558   3.978   3.138   3.840 -0.4243 -0.1246  0.3780
 1697SOL     OW 6559   5.657   1.479   5.572  0.0538 -0.1705 -0.3754
 1697SOL    HW2 6560   5.671   1.516   5.485  0.0715 -0.4865 -0.5066
 1697SOL    HW3 6561   5.581   1.526   5.606  0.6215  0.6251 -0.1812
 1697SOL    MW4 6562   5.649   1.490   5.565 -0.1145 -0.6218  0.0135
 1698SOL     OW 6563   6.135   3.706   6.329 -0.1681 -0.1153 -0.1713
 1698SOL    HW2 6564   6.132   3.772   6.260  0.4762  0.1221  0.0239
 1698SOL    HW3 6565   6.180   3.631   6.290  0.1620  0.0045 -0.0210
 1698SOL    MW4 6566   6.140   3.705   6.315 -0.3618  0.0581 -0.2021
 1699SOL     OW 6567   4.392   4.621   6.084  0.4297 -0.0157  0.1542
 1699SOL    HW2 6568   4.383   4.618   5.989 -0.1369 -0.8652  0.2196
 1699SOL    HW3 6569   4.435   4.705   6.102  1.1664 -0.1591 -0.8869
 1699SOL    MW4 6570   4.396   4.632   6.074 -0.4649  0.0001 -0.0467
 1700SOL     OW 6571   3.811   2.878   6.254 -0.5283 -0.3579 -0.0210
 1700SOL    HW2 6572   3.747   2.823   6.299 -2.8418  0.7949 -1.7193
 1700SOL    HW3 6573   3.761   2.955   6.226  1.6058  0.5997 -1.4540
 1700SOL    MW4 6574   3.796   2.881   6.256  0.1954 -0.1659  0.4961
 1701SOL     OW 6575   6.381   3.862   2.806  0.3104  0.3669 -0.5401
 1701SOL    HW2 6576   6.476   3.850   2.805  0.2404 -0.3663  0.4881
 1701SOL    HW3 6577   6.358   3.865   2.898 -0.7091  0.2682 -0.7780
 1701SOL    MW4 6578   6.391   3.861   2.818  0.1115 -0.3482 -0.1542
 1702SOL     OW 6579   5.483   0.567   0.571 -0.2488 -0.3736 -0.0731
 1702SOL    HW2 6580   5.539   0.494   0.598 -0.9855 -1.3060 -0.9795
 1702SOL    HW3 6581   5.539   0.644   0.578  0.1892 -0.8281  2.0914
 1702SOL    MW4 6582   5.498   0.568   0.575  0.3044  0.3309  0.1017
 1703SOL     OW 6583   3.264   6.383   2.749 -0.2180  0.1121 -1.2444
 1703SOL    HW2 6584   3.290   6.386   2.841  1.1551  0.1459 -1.6003
 1703SOL    HW3 6585   3.169   6.396   2.749 -0.1173  0.9684  0.1029
 1703SOL    MW4 6586   3.255   6.385   2.761 -0.2167 -0.0816  0.0921
 1704SOL     OW 6587   3.423   4.374   0.905 -0.5723  0.3972  0.0852
 1704SOL    HW2 6588   3.426   4.466   0.931  1.0009  0.6099 -0.7506
 1704SOL    HW3 6589   3.493   4.333   0.954 -0.1774  0.0031 -0.7858
 1704SOL    MW4 6590   3.432   4.381   0.915  0.3423 -0.0679 -0.2427
 1705SOL     OW 6591   1.509   2.713   5.897 -0.2336  0.6365  0.0196
 1705SOL    HW2 6592   1.506   2.746   5.987  1.6547  2.4127 -0.4898
 1705SOL    HW3 6593   1.602   2.703   5.879 -0.6015 -0.0061 -1.6598
 1705SOL    MW4 6594   1.521   2.716   5.907  0.3632  0.3787  0.5518
 1706SOL     OW 6595   5.860   3.350   4.163 -0.4823 -0.6947 -0.2781
 1706SOL    HW2 6596   5.878   3.306   4.246  0.4408  1.0394  0.4857
 1706SOL    HW3 6597   5.777   3.395   4.177  0.7468  1.4414  0.5532
 1706SOL    MW4 6598   5.851   3.350   4.176  0.1906 -0.0084 -0.3362
 1707SOL     OW 6599   3.668   2.020   2.200  0.0470  0.5689  0.3216
 1707SOL    HW2 6600   3.609   1.981   2.264  0.4928  0.1153  0.4633
 1707SOL    HW3 6601   3.635   1.989   2.115  0.7876 -0.7084  0.4632
 1707SOL    MW4 6602   3.656   2.010   2.197  0.8612 -0.2345  0.3821
 1708SOL     OW 6603   2.844   3.134   2.553 -0.0234 -0.6686 -0.1202
 1708SOL    HW2 6604   2.789   3.176   2.618 -1.5790  1.7319 -2.7530
 1708SOL    HW3 6605   2.907   3.202   2.527 -0.0036 -1.2498 -1.7075
 1708SOL    MW4 6606   2.845   3.148   2.558  0.0946  0.0274 -0.5388
 1709SOL     OW 6607   0.197   5.831   5.230 -0.7310  0.2487  0.5390
 1709SOL    HW2 6608   0.177   5.870   5.315 -2.6152  0.8598 -0.1571
 1709SOL    HW3 6609   0.121   5.850   5.175  0.8353  0.7283 -1.6080
 1709SOL    MW4 6610   0.185   5.839   5.234 -0.2322  0.5585  0.8604
 1710SOL     OW 6611   4.495   5.440   0.725  0.1934 -0.3863  0.4288
 1710SOL    HW2 6612   4.491   5.345   0.734  1.3745 -0.4002  1.0249
 1710SOL    HW3 6613   4.588   5.460   0.713 -0.1629  0.6018 -1.0504
 1710SOL    MW4 6614   4.507   5.430   0.725 -0.0921  0.3486 -0.1285
 1711SOL     OW 6615   6.418   0.432   1.519 -0.3729 -0.0644 -0.2037
 1711SOL    HW2 6616   6.398   0.428   1.612  1.3489 -0.7691  0.1864
 1711SOL    HW3 6617   6.489   0.496   1.513  1.8947 -2.4356 -0.4777
 1711SOL    MW4 6618   6.425   0.440   1.531 -0.2877 -0.1139 -0.2094
 1712SOL     OW 6619   5.918   3.613   4.672  0.0070 -0.2703 -0.7750
 1712SOL    HW2 6620   5.977   3.684   4.647 -0.1482  0.0134 -0.3483
 1712SOL    HW3 6621   5.967   3.562   4.736 -0.4945  0.4409  0.2059
 1712SOL    MW4 6622   5.932   3.616   4.677  0.7928 -0.5615 -0.4268
 1713SOL     OW 6623   4.003   6.251   6.406  0.3195  0.0142 -0.5653
 1713SOL    HW2 6624   3.927   6.271   6.461 -0.4900 -3.2285 -0.3240
 1713SOL    HW3 6625   3.980   6.287   6.320  1.1111  4.1231  0.7177
 1713SOL    MW4 6626   3.990   6.259   6.402  0.2176  0.2457 -0.1065
 1714SOL     OW 6627   2.489   4.942   0.038 -0.3512  0.2041  0.1028
 1714SOL    HW2 6628   2.393   4.934   0.036 -0.5359  2.0230 -1.0542
 1714SOL    HW3 6629   2.520   4.861  -0.003 -1.4479  0.0355 -0.4401
 1714SOL    MW4 6630   2.480   4.931   0.032 -0.0510 -0.3784 -0.1943
 1715SOL     OW 6631   5.787   2.439   3.072  0.2172  0.1757  0.3143
 1715SOL    HW2 6632   5.744   2.459   2.990  0.4464  1.5619  0.5073
 1715SOL    HW3 6633   5.791   2.343   3.075 -3.4077 -0.0923  0.6135
 1715SOL    MW4 6634   5.782   2.429   3.062 -0.5762  0.2184  0.8717
 1716SOL     OW 6635   6.230   0.787   2.100  0.3568 -0.1036 -0.1544
 1716SOL    HW2 6636   6.171   0.733   2.048  1.1344  0.0648 -1.2356
 1716SOL    HW3 6637   6.195   0.781   2.189 -0.2420 -1.4346 -0.4549
 1716SOL    MW4 6638   6.217   0.779   2.105  0.3835 -0.1570  0.0809
 1717SOL     OW 6639   2.289   4.860   5.163 -0.3996 -0.1054  0.2908
 1717SOL    HW2 6640   2.271   4.872   5.256 -3.4433  1.2363 -0.3422
 1717SOL    HW3 6641   2.365   4.916   5.146 -1.9882  2.5599  1.3556
 1717SOL    MW4 6642   2.297   4.869   5.173  0.1728  0.3807  0.5597
 1718SOL     OW 6643   0.644   2.759   2.887  0.0208  0.2193 -0.0787
 1718SOL    HW2 6644   0.714   2.788   2.946  0.7699 -1.4342 -0.0945
 1718SOL    HW3 6645   0.613   2.839   2.845  0.4650  1.2578  1.4808
 1718SOL    MW4 6646   0.649   2.773   2.890  0.5939 -0.1700 -0.4846
 1719SOL     OW 6647   3.691   2.032   3.491  0.2071  0.1770 -0.7419
 1719SOL    HW2 6648   3.632   2.087   3.439  1.2939  0.4039 -1.7706
 1719SOL    HW3 6649   3.738   1.979   3.427  2.0016  0.8795 -0.0765
 1719SOL    MW4 6650   3.689   2.032   3.476 -0.0899  0.3992  0.2512
 1720SOL     OW 6651   4.289   3.627   4.984  0.0244  0.4591 -0.4170
 1720SOL    HW2 6652   4.270   3.624   5.077  1.5185 -0.7695 -0.1220
 1720SOL    HW3 6653   4.293   3.721   4.964 -1.4595  0.7443  0.4707
 1720SOL    MW4 6654   4.287   3.639   4.993 -0.2438  0.3002  0.1577
 1721SOL     OW 6655   5.700   2.004   3.519  0.7981  0.1734  0.0722
 1721SOL    HW2 6656   5.647   1.946   3.464  0.5371 -1.2290  1.7000
 1721SOL    HW3 6657   5.693   1.966   3.607  2.2819  1.5470  0.8334
 1721SOL    MW4 6658   5.692   1.991   3.523 -0.6151  0.3365 -0.1809
 1722SOL     OW 6659   3.502   0.242   3.832 -0.3679  0.1061 -0.2205
 1722SOL    HW2 6660   3.418   0.269   3.793 -1.5255  2.1080  3.1954
 1722SOL    HW3 6661   3.477   0.195   3.911  1.8552 -2.5763 -0.9558
 1722SOL    MW4 6662   3.488   0.239   3.837  0.0006 -0.2412  0.5581
 1723SOL     OW 6663   1.069   5.643   2.916 -0.6598 -0.2873 -0.3625
 1723SOL    HW2 6664   1.152   5.651   2.962 -0.2217 -2.7738 -0.5902
 1723SOL    HW3 6665   1.089   5.668   2.826 -0.4429  0.2456 -0.1686
 1723SOL    MW4 6666   1.082   5.647   2.910 -0.2673  0.1092 -0.5459
 1724SOL     OW 6667   5.244   5.750   0.887 -0.3915 -0.3121  0.2308
 1724SOL    HW2 6668   5.275   5.840   0.876 -0.0736 -0.1710  2.0278
 1724SOL    HW3 6669   5.197   5.750   0.970 -0.0724 -1.8946  0.4523
 1724SOL    MW4 6670   5.242   5.762   0.896 -0.3897 -0.2426 -0.6089
 1725SOL     OW 6671   6.325   2.543   2.983 -0.0587  0.4529 -0.2727
 1725SOL    HW2 6672   6.406   2.499   2.961 -0.2195  0.5713 -1.1286
 1725SOL    HW3 6673   6.275   2.545   2.901 -1.4441 -0.6964  0.4861
 1725SOL    MW4 6674   6.329   2.537   2.969  0.0282  0.4904 -0.1842
 1726SOL     OW 6675   5.096   4.051   5.050  0.5678  0.0467 -0.5810
 1726SOL    HW2 6676   5.159   4.009   4.991  0.6988 -0.2631 -0.2272
 1726SOL    HW3 6677   5.021   3.992   5.049  0.2954  0.3968 -0.9718
 1726SOL    MW4 6678   5.095   4.038   5.042  0.2514  0.6414  0.7204
 1727SOL     OW 6679   5.615   4.736   1.948 -0.2599 -0.4034  0.2424
 1727SOL    HW2 6680   5.649   4.688   2.024  1.1476 -1.7662 -1.1585
 1727SOL    HW3 6681   5.685   4.797   1.925 -0.2812 -0.6434 -0.4886
 1727SOL    MW4 6682   5.629   4.737   1.955 -0.2483  0.1600  0.6305
 1728SOL     OW 6683   0.162   4.606   5.473  0.1029 -0.1788  0.0194
 1728SOL    HW2 6684   0.177   4.513   5.453 -0.6286 -0.3484  0.2408
 1728SOL    HW3 6685   0.180   4.651   5.391 -1.7486 -0.7508 -0.7449
 1728SOL    MW4 6686   0.166   4.599   5.460  0.2507  0.1235  0.2150
 1729SOL     OW 6687   5.743   1.601   2.472 -0.4772  0.1392 -0.3631
 1729SOL    HW2 6688   5.649   1.585   2.462 -0.0354 -3.0180 -0.3150
 1729SOL    HW3 6689   5.782   1.571   2.390  0.7916 -2.4624  1.0554
 1729SOL    MW4 6690   5.736   1.595   2.460  0.1337  0.4121  0.5218
 1730SOL     OW 6691   5.877   0.064   4.768 -0.1110  0.0049  0.0507
 1730SOL    HW2 6692   5.954   0.016   4.797  0.0482  0.9065  1.2169
 1730SOL    HW3 6693   5.805   0.028   4.820 -0.1635  0.3258  0.2064
 1730SOL    MW4 6694   5.877   0.053   4.778 -0.1205 -0.0856  0.1569
 1731SOL     OW 6695   5.935   5.947   2.953 -1.3991  0.5618 -0.1493
 1731SOL    HW2 6696   5.992   5.982   3.022 -3.1481  0.7214  1.3130
 1731SOL    HW3 6697   5.966   5.986   2.872  0.3956  0.8000  0.6259
 1731SOL    MW4 6698   5.946   5.957   2.952 -0.2824 -0.3732  0.5661
 1732SOL     OW 6699   0.517   4.058   3.071 -0.1695  0.5754  0.5088
 1732SOL    HW2 6700   0.511   3.962   3.062 -0.7975  0.4597  1.9565
 1732SOL    HW3 6701   0.522   4.090   2.981 -0.1025 -0.8101 -0.0063
 1732SOL    MW4 6702   0.517   4.049   3.058  0.6831 -0.2707 -0.0139
 1733SOL     OW 6703   6.362   3.436   2.603  0.1532 -0.6042  0.0066
 1733SOL    HW2 6704   6.333   3.471   2.687 -1.9174 -1.5338 -0.2606
 1733SOL    HW3 6705   6.359   3.511   2.543  0.2085 -0.2680  0.4186
 1733SOL    MW4 6706   6.358   3.451   2.606 -0.2539  0.5941  0.3952
 1734SOL     OW 6707   1.756   3.261   3.037 -0.2206  0.1065 -0.7409
 1734SOL    HW2 6708   1.834   3.273   3.091 -1.3444 -0.5514  1.1411
 1734SOL    HW3 6709   1.775   3.306   2.955  1.1011  2.2408  0.6618
 1734SOL    MW4 6710   1.769   3.268   3.034  0.1009 -0.1401  0.5275
 1735SOL     OW 6711   5.456   3.684   2.411 -0.7826  0.1321 -0.6857
 1735SOL    HW2 6712   5.436   3.629   2.487 -1.0450 -0.6642 -1.3179
 1735SOL    HW3 6713   5.551   3.695   2.414 -0.8615  0.7046  0.1466
 1735SOL    MW4 6714   5.466   3.678   2.421  0.5213 -0.2864  0.1171
 1736SOL     OW 6715   5.755   0.483   2.298  0.3374 -0.0018  0.0726
 1736SOL    HW2 6716   5.768   0.508   2.206  2.7753  2.0734  0.8556
 1736SOL    HW3 6717   5.806   0.403   2.308 -1.2677 -1.1981 -0.6628
 1736SOL    MW4 6718   5.763   0.476   2.287  0.0836 -0.4992 -0.3425
 1737SOL     OW 6719   5.543   1.970   5.526 -0.0335  0.1240 -0.5176
 1737SOL    HW2 6720   5.526   2.028   5.452 -0.6050  0.8397  0.1507
 1737SOL    HW3 6721   5.634   1.987   5.549 -0.1347  0.6117 -0.4591
 1737SOL    MW4 6722   5.553   1.980   5.519 -0.2185  0.5041 -0.6147
 1738SOL     OW 6723   1.257   6.140   0.263  0.0648  0.0845  0.1157
 1738SOL    HW2 6724   1.301   6.058   0.241 -0.1022 -0.1877  0.7655
 1738SOL    HW3 6725   1.321   6.208   0.241  0.5576 -0.2701  0.4211
 1738SOL    MW4 6726   1.272   6.139   0.257 -0.0473  0.4183  0.0199
 1739SOL     OW 6727   0.775   0.417   0.226 -0.2457 -0.6812 -0.2305
 1739SOL    HW2 6728   0.752   0.454   0.141 -0.2538 -0.2672 -0.0531
 1739SOL    HW3 6729   0.852   0.467   0.254 -1.3167  0.4642  0.8191
 1739SOL    MW4 6730   0.782   0.429   0.219 -0.6264 -0.7853 -0.2653
 1740SOL     OW 6731   5.861   5.023   4.784  0.2253 -0.2344 -0.6314
 1740SOL    HW2 6732   5.920   4.960   4.826 -2.1719 -0.9754  1.9197
 1740SOL    HW3 6733   5.854   5.096   4.846 -2.0806 -0.5412 -0.4221
 1740SOL    MW4 6734   5.868   5.024   4.797 -0.7474  0.0298  0.4580
 1741SOL     OW 6735   4.112   3.341   0.297  0.1341  0.4279  0.4450
 1741SOL    HW2 6736   4.027   3.299   0.305  0.7719 -0.6543  2.0392
 1741SOL    HW3 6737   4.094   3.426   0.257 -1.6362  0.1137  0.5269
 1741SOL    MW4 6738   4.099   3.347   0.293 -0.2378 -0.1555 -0.7511
 1742SOL     OW 6739   0.312   1.651   2.050 -0.5597  0.3917 -0.3755
 1742SOL    HW2 6740   0.303   1.736   2.092  1.7787  0.5376 -0.0091
 1742SOL    HW3 6741   0.392   1.614   2.089 -0.4799 -1.1434 -1.8903
 1742SOL    MW4 6742   0.321   1.657   2.061  0.5450 -0.4801 -0.3739
 1743SOL     OW 6743   6.307   0.744   5.514 -0.3447 -0.5674  0.0401
 1743SOL    HW2 6744   6.353   0.668   5.550 -1.2239  0.1492  2.9211
 1743SOL    HW3 6745   6.220   0.741   5.553 -0.0470  2.5030  1.1778
 1743SOL    MW4 6746   6.302   0.733   5.524  0.7463 -0.1033  0.1738
 1744SOL     OW 6747   3.254   1.897   5.836  0.1308  0.3280 -0.0937
 1744SOL    HW2 6748   3.322   1.883   5.902  0.3371 -0.2781 -0.4265
 1744SOL    HW3 6749   3.302   1.926   5.758  0.2655 -2.0626 -0.9703
 1744SOL    MW4 6750   3.269   1.899   5.834  0.1711  0.0799  0.2532
 1745SOL     OW 6751   0.882   0.065   6.338  0.7389 -0.6932 -0.1065
 1745SOL    HW2 6752   0.929   0.092   6.418 -2.3866 -3.4369  2.9966
 1745SOL    HW3 6753   0.816   0.133   6.325  1.4427 -0.0859 -0.6400
 1745SOL    MW4 6754   0.880   0.078   6.347  0.0308  0.2573  0.1411
 1746SOL     OW 6755   1.695   4.234   0.183  0.0806  0.0563 -0.3315
 1746SOL    HW2 6756   1.723   4.177   0.112  2.9722  0.5225  0.3056
 1746SOL    HW3 6757   1.747   4.314   0.172 -0.5462  0.7566  1.3984
 1746SOL    MW4 6758   1.706   4.237   0.172  0.4135 -0.0627 -0.8228
 1747SOL     OW 6759   2.320   4.111   6.068  0.3346 -0.3168  0.4958
 1747SOL    HW2 6760   2.254   4.156   6.015  1.4928 -0.6008 -1.2621
 1747SOL    HW3 6761   2.330   4.167   6.145 -1.7173 -0.1218  0.6811
 1747SOL    MW4 6762   2.312   4.124   6.071  0.1435  0.0760 -0.0267
 1748SOL     OW 6763   1.662   2.188   0.441  0.5894  0.6416  0.8278
 1748SOL    HW2 6764   1.740   2.191   0.497  1.6913  0.5896 -0.6178
 1748SOL    HW3 6765   1.602   2.250   0.480  1.2868  0.5706  2.0845
 1748SOL    MW4 6766   1.665   2.196   0.453 -0.0879  0.1158 -0.4643
 1749SOL     OW 6767   1.649   1.146   5.476  0.1653 -0.2126 -0.1412
 1749SOL    HW2 6768   1.685   1.155   5.388 -0.7992 -2.1864 -0.7916
 1749SOL    HW3 6769   1.726   1.132   5.531  0.9474  2.6882 -0.3009
 1749SOL    MW4 6770   1.664   1.145   5.472  0.9475 -0.0953  0.0606
 1750SOL     OW 6771   1.561   5.201   1.203 -0.0942 -0.1450 -0.3492
 1750SOL    HW2 6772   1.580   5.273   1.264  1.1674 -0.3275 -0.4878
 1750SOL    HW3 6773   1.646   5.181   1.164 -0.3346 -2.0118  0.0075
 1750SOL    MW4 6774   1.575   5.208   1.206 -0.1848  0.7529 -0.4817
 1751SOL     OW 6775   4.421   3.622   0.874 -0.1519  0.3145 -0.0465
 1751SOL    HW2 6776   4.488   3.618   0.806  1.3159 -2.4532  1.3648
 1751SOL    HW3 6777   4.339   3.603   0.828  0.6842 -0.6607 -1.1951
 1751SOL    MW4 6778   4.419   3.619   0.859  0.7897  1.0053  0.5022
 1752SOL     OW 6779   1.670   2.219   3.622 -0.5288  0.5727  0.3318
 1752SOL    HW2 6780   1.612   2.243   3.550 -2.6120 -4.0980  0.0688
 1752SOL    HW3 6781   1.620   2.240   3.701 -0.1122  1.7010  0.3060
 1752SOL    MW4 6782   1.656   2.225   3.623 -0.7108 -0.3718 -0.0215
 1753SOL     OW 6783   5.320   4.027   0.242  0.7165 -0.9813 -0.2371
 1753SOL    HW2 6784   5.304   3.957   0.305 -1.7513  0.0947  0.4298
 1753SOL    HW3 6785   5.237   4.037   0.195  1.5336  0.3797 -1.4995
 1753SOL    MW4 6786   5.307   4.019   0.244 -0.1221 -0.5283  0.4647
 1754SOL     OW 6787   2.285   2.661   1.472 -0.2302 -0.5090 -0.2897
 1754SOL    HW2 6788   2.364   2.660   1.418  0.3975  0.6169  0.5349
 1754SOL    HW3 6789   2.319   2.665   1.562 -1.2021 -4.0310  0.3704
 1754SOL    MW4 6790   2.300   2.662   1.477 -1.0249  0.0900  0.1956
 1755SOL     OW 6791   6.019   2.335   4.029 -0.6411  0.4842  0.2606
 1755SOL    HW2 6792   5.997   2.243   4.044  0.7873  0.3629  2.0178
 1755SOL    HW3 6793   6.098   2.332   3.975 -0.8865  0.6929 -0.1090
 1755SOL    MW4 6794   6.027   2.323   4.024  0.0827  0.6436  0.1340
 1756SOL     OW 6795   2.788   2.725   2.569  0.4097  0.5793 -0.5054
 1756SOL    HW2 6796   2.844   2.752   2.496  0.3303  0.4820 -0.6014
 1756SOL    HW3 6797   2.704   2.704   2.529  0.2567  0.8690 -0.3446
 1756SOL    MW4 6798   2.784   2.726   2.554  0.0728  0.0087 -0.8664
 1757SOL     OW 6799   6.267   3.586   3.248 -0.0766  0.1066  0.5784
 1757SOL    HW2 6800   6.232   3.508   3.290 -1.2213  0.6429  0.6898
 1757SOL    HW3 6801   6.215   3.658   3.285 -0.4174  0.7011 -0.9764
 1757SOL    MW4 6802   6.255   3.585   3.258 -0.5133 -0.2061  0.0181
 1758SOL     OW 6803   0.783   0.885   2.464  0.4152  0.4319 -0.3775
 1758SOL    HW2 6804   0.827   0.800   2.466  0.4663  0.4503  1.6769
 1758SOL    HW3 6805   0.835   0.938   2.403  2.4324  0.0040  0.8736
 1758SOL    MW4 6806   0.796   0.881   2.456  0.1442  0.4567 -0.5318
 1759SOL     OW 6807   4.019   6.044   6.154  0.3730 -0.0821 -0.1111
 1759SOL    HW2 6808   4.074   5.966   6.155  0.9007  0.2313 -1.5234
 1759SOL    HW3 6809   4.074   6.113   6.192 -0.3124 -0.4976  1.7164
 1759SOL    MW4 6810   4.033   6.043   6.159 -0.0551 -0.3499  0.3729
 1760SOL     OW 6811   1.382   3.130   1.066  0.9996 -0.2340  0.1453
 1760SOL    HW2 6812   1.415   3.101   1.152 -2.3092 -0.1795  1.5938
 1760SOL    HW3 6813   1.394   3.054   1.009  1.6239 -0.9302  1.1665
 1760SOL    MW4 6814   1.388   3.116   1.070 -0.1798  0.1492  0.0371
 1761SOL     OW 6815   5.292   1.872   4.125  0.3382 -0.4557 -0.0536
 1761SOL    HW2 6816   5.366   1.841   4.074  0.8726  1.5127 -0.5653
 1761SOL    HW3 6817   5.229   1.799   4.123  0.2803 -0.5072 -3.6193
 1761SOL    MW4 6818   5.293   1.858   4.118 -0.1677  0.0937  0.3288
 1762SOL     OW 6819   5.345   0.125   0.531 -1.2137 -0.6848 -0.4392
 1762SOL    HW2 6820   5.354   0.032   0.510  0.9062 -0.9237  1.1701
 1762SOL    HW3 6821   5.310   0.165   0.452 -0.5734 -2.6110 -1.7452
 1762SOL    MW4 6822   5.342   0.118   0.518 -0.3569  0.8561 -0.4043
 1763SOL     OW 6823   4.425   2.881   3.662 -0.1254  0.1906 -0.4753
 1763SOL    HW2 6824   4.515   2.886   3.694  0.6645 -1.6680 -2.1459
 1763SOL    HW3 6825   4.431   2.906   3.569 -1.6217  1.5289 -0.2561
 1763SOL    MW4 6826   4.437   2.885   3.654  0.1237 -0.1748  0.2099
 1764SOL     OW 6827   0.609   1.014   6.407 -0.1362  0.1017  0.1372
 1764SOL    HW2 6828   0.601   0.921   6.426  0.2291  0.1542  0.5599
 1764SOL    HW3 6829   0.617   1.019   6.312  1.6146 -0.4325  0.2217
 1764SOL    MW4 6830   0.609   1.002   6.397 -0.4217  0.2064  0.5737
 1765SOL     OW 6831   3.786   2.055   5.179 -0.3027 -0.0641  0.1258
 1765SOL    HW2 6832   3.714   2.118   5.177  0.6818  1.1279  1.0365
 1765SOL    HW3 6833   3.772   2.006   5.260  0.2048  0.5244  0.5698
 1765SOL    MW4 6834   3.774   2.057   5.189  0.0630 -0.3278  0.1289
 1766SOL     OW 6835   0.033   5.906   4.791 -0.3386  0.3874 -0.1826
 1766SOL    HW2 6836  -0.046   5.939   4.748  0.2314  1.0756 -0.7229
 1766SOL    HW3 6837   0.100   5.908   4.723  0.2477  0.2236  0.3824
 1766SOL    MW4 6838   0.032   5.911   4.777 -0.2449  0.5954 -0.2646
 1767SOL     OW 6839   2.986   2.051   1.831 -0.2722  0.2552 -0.2283
 1767SOL    HW2 6840   2.954   2.134   1.795  0.2255  0.1980 -0.8223
 1767SOL    HW3 6841   3.053   2.023   1.769 -1.0953 -1.0616 -0.5533
 1767SOL    MW4 6842   2.990   2.058   1.818  0.2915  0.1629  0.0193
 1768SOL     OW 6843   4.740   3.990   4.840  0.1580 -0.0111 -0.4626
 1768SOL    HW2 6844   4.817   4.043   4.820  0.4927 -0.1795  0.3439
 1768SOL    HW3 6845   4.687   3.995   4.761  0.3140  1.2892 -0.5146
 1768SOL    MW4 6846   4.743   3.998   4.827  0.4993 -0.3342 -0.1432
 1769SOL     OW 6847   2.202   5.063   4.596 -0.1480  0.3768 -0.1120
 1769SOL    HW2 6848   2.144   5.134   4.622  0.3288  0.7821 -0.1467
 1769SOL    HW3 6849   2.223   5.018   4.678 -1.7093 -0.7025 -0.2771
 1769SOL    MW4 6850   2.197   5.066   4.611  0.1603 -0.1562 -0.1974
 1770SOL     OW 6851   5.076   2.932   4.672  0.0539  0.1046 -0.1463
 1770SOL    HW2 6852   4.999   2.880   4.647 -0.2399 -0.0478  1.0146
 1770SOL    HW3 6853   5.044   3.022   4.679 -0.2127 -0.0571  1.0180
 1770SOL    MW4 6854   5.062   2.937   4.670 -0.3013 -0.0475  0.5047
 1771SOL     OW 6855   5.219   4.565   1.590  0.3082 -0.1430 -0.8236
 1771SOL    HW2 6856   5.196   4.606   1.507 -0.6452 -0.6046 -0.7926
 1771SOL    HW3 6857   5.145   4.508   1.611  0.9716 -0.7829 -0.1439
 1771SOL    MW4 6858   5.206   4.563   1.582  0.0658 -0.3570 -0.6986
 1772SOL     OW 6859   3.011   1.796   5.913 -0.2864  0.7066  0.0282
 1772SOL    HW2 6860   3.091   1.829   5.872  0.4234 -2.2393 -1.2446
 1772SOL    HW3 6861   2.945   1.800   5.843  0.7270 -3.5892 -1.4729
 1772SOL    MW4 6862   3.013   1.801   5.898  0.5652  0.4458 -0.2805
 1773SOL     OW 6863   5.762   0.174   0.963 -0.0516  0.0093 -0.2869
 1773SOL    HW2 6864   5.827   0.243   0.975 -0.0090  0.0634 -0.8177
 1773SOL    HW3 6865   5.803   0.096   1.001 -0.6263  0.5350  1.5318
 1773SOL    MW4 6866   5.776   0.173   0.970  0.3257 -0.1260 -0.1329
 1774SOL     OW 6867   3.119   1.813   4.116  0.3036  0.1724  0.3646
 1774SOL    HW2 6868   3.152   1.897   4.148  0.4196  0.5436 -0.6864
 1774SOL    HW3 6869   3.177   1.790   4.044 -0.5802 -0.0998 -0.2840
 1774SOL    MW4 6870   3.131   1.821   4.110 -0.4370 -0.2392 -0.0339
 1775SOL     OW 6871   3.019   3.671   2.081 -0.0183  0.7975  0.3239
 1775SOL    HW2 6872   3.065   3.623   2.012  0.4346  0.0912  1.0962
 1775SOL    HW3 6873   2.951   3.720   2.035  1.1761  1.4679 -0.7930
 1775SOL    MW4 6874   3.016   3.671   2.066 -0.4352 -0.3225 -0.3288
 1776SOL     OW 6875   2.604   5.410   2.515  0.2360  0.0724  0.0788
 1776SOL    HW2 6876   2.628   5.492   2.472 -0.5635 -0.2986 -1.0997
 1776SOL    HW3 6877   2.660   5.344   2.474 -0.0080 -0.1724  0.1375
 1776SOL    MW4 6878   2.615   5.412   2.504 -0.5369 -0.3044 -0.1280
 1777SOL     OW 6879   2.499   2.163   1.771  0.1295  0.0935 -0.1653
 1777SOL    HW2 6880   2.504   2.075   1.735 -0.0245  0.5385 -1.3339
 1777SOL    HW3 6881   2.512   2.152   1.865  1.1299 -1.0595 -0.4186
 1777SOL    MW4 6882   2.501   2.150   1.778 -1.4332  0.3024  0.5414
 1778SOL     OW 6883   2.070   4.853   3.316  0.4796  0.2296  0.3868
 1778SOL    HW2 6884   2.020   4.864   3.235 -1.2165 -0.2296  1.3248
 1778SOL    HW3 6885   2.079   4.758   3.326  1.1412  0.2943  0.4923
 1778SOL    MW4 6886   2.065   4.842   3.307 -0.0972  0.5575  0.3435
 1779SOL     OW 6887   1.676   4.727   0.025  0.2421  0.4447  0.1451
 1779SOL    HW2 6888   1.743   4.752   0.087 -0.2176 -0.5049  1.0605
 1779SOL    HW3 6889   1.711   4.752  -0.061  2.3429 -1.1944  0.4491
 1779SOL    MW4 6890   1.689   4.734   0.022  0.4617  0.1352 -0.1898
 1780SOL     OW 6891   4.073   4.397   0.794  0.1841 -0.4987  0.2574
 1780SOL    HW2 6892   4.161   4.360   0.802  0.4351 -0.1109 -0.5882
 1780SOL    HW3 6893   4.059   4.442   0.877 -0.3156 -2.7975  1.5046
 1780SOL    MW4 6894   4.083   4.398   0.806 -0.0231  0.1015 -0.6915
 1781SOL     OW 6895   3.480   2.708   1.168  0.5041  0.6279  0.3420
 1781SOL    HW2 6896   3.417   2.763   1.214 -1.0627  0.7998 -1.8722
 1781SOL    HW3 6897   3.429   2.633   1.138  1.4152  0.5702 -1.1500
 1781SOL    MW4 6898   3.465   2.706   1.170 -0.0807 -0.5961 -0.2699
 1782SOL     OW 6899   3.676   5.615   3.291 -0.1502 -0.1216 -0.0917
 1782SOL    HW2 6900   3.597   5.668   3.306 -0.2257 -0.4970  0.9307
 1782SOL    HW3 6901   3.651   5.555   3.221 -0.3417  0.6219 -0.6791
 1782SOL    MW4 6902   3.662   5.614   3.284 -0.2548 -0.2592 -0.0120
 1783SOL     OW 6903   5.562   4.697   2.883  0.1876 -0.3812 -0.0420
 1783SOL    HW2 6904   5.532   4.628   2.942  1.7854 -0.0285  1.2652
 1783SOL    HW3 6905   5.486   4.753   2.871 -0.0205 -0.0265  2.3803
 1783SOL    MW4 6906   5.548   4.695   2.889  0.6392  0.1390 -0.3501
 1784SOL     OW 6907   3.891   0.669   3.172  0.7450 -0.1978  0.7136
 1784SOL    HW2 6908   3.949   0.675   3.248  1.0625 -0.2325  0.4775
 1784SOL    HW3 6909   3.808   0.637   3.207  0.9573 -0.4226  1.0112
 1784SOL    MW4 6910   3.888   0.666   3.186  0.3632 -0.1555 -0.1610
 1785SOL     OW 6911   5.016   2.637   0.033 -0.3664 -0.1916 -0.2368
 1785SOL    HW2 6912   5.015   2.554   0.079 -3.2723  0.6230  1.4355
 1785SOL    HW3 6913   4.968   2.620  -0.048  0.5279 -0.4925 -0.7195
 1785SOL    MW4 6914   5.010   2.624   0.028 -0.1294 -0.2460 -0.7304
 1786SOL     OW 6915   3.852   4.741   3.605  0.8760 -0.6175 -0.1418
 1786SOL    HW2 6916   3.884   4.690   3.531  0.6262 -0.5068 -0.3297
 1786SOL    HW3 6917   3.930   4.784   3.641  1.0533 -0.9618 -0.1133
 1786SOL    MW4 6918   3.866   4.740   3.600 -0.2953 -0.8305  0.1542
 1787SOL     OW 6919   1.597   1.124   3.264  0.0791 -0.3368 -0.0922
 1787SOL    HW2 6920   1.628   1.130   3.174 -2.3147  1.8182 -0.9175
 1787SOL    HW3 6921   1.502   1.110   3.255 -0.1061 -0.8289  2.1227
 1787SOL    MW4 6922   1.588   1.123   3.251 -0.1656  0.3354  0.5954
 1788SOL     OW 6923   2.131   3.444   1.186 -0.3196 -0.0211  0.4235
 1788SOL    HW2 6924   2.088   3.420   1.105 -0.0279  0.3079  0.1694
 1788SOL    HW3 6925   2.216   3.399   1.183 -0.4803 -0.3602  0.7485
 1788SOL    MW4 6926   2.137   3.435   1.175  0.3330  0.0647 -0.1383
 1789SOL     OW 6927   3.960   2.833   1.934  0.2962  0.3638  0.0012
 1789SOL    HW2 6928   3.904   2.825   1.857  0.3430  1.5972 -0.1751
 1789SOL    HW3 6929   3.926   2.767   1.995  0.2906 -0.6533 -1.0769
 1789SOL    MW4 6930   3.948   2.823   1.932 -0.3200 -0.1678  0.1501
 1790SOL     OW 6931   1.343   1.342   4.832  1.0629  0.0846  0.9721
 1790SOL    HW2 6932   1.404   1.350   4.906 -0.6206 -0.2902  2.4505
 1790SOL    HW3 6933   1.261   1.380   4.864  0.5250  0.7205 -1.0272
 1790SOL    MW4 6934   1.341   1.348   4.846  0.1517 -0.7507 -0.0260
 1791SOL     OW 6935   3.681   3.127   1.330  0.4696  0.0515 -0.2757
 1791SOL    HW2 6936   3.724   3.041   1.325 -0.4633 -0.4294 -0.3249
 1791SOL    HW3 6937   3.630   3.132   1.249  0.4755  0.6321 -0.2430
 1791SOL    MW4 6938   3.680   3.116   1.319 -0.4892  0.6654  0.2477
 1792SOL     OW 6939   4.124   0.434   2.743 -0.5783  0.0211 -0.1887
 1792SOL    HW2 6940   4.065   0.474   2.679 -1.9943 -0.7128  0.5979
 1792SOL    HW3 6941   4.148   0.350   2.704 -0.9943 -0.1831 -0.0125
 1792SOL    MW4 6942   4.119   0.428   2.729 -0.2630  0.2083  0.1745
 1793SOL     OW 6943   6.406   1.657   1.177 -1.1758 -0.0078  0.3586
 1793SOL    HW2 6944   6.474   1.626   1.237 -0.2898  1.9111  0.4400
 1793SOL    HW3 6945   6.349   1.581   1.163  1.0783 -1.7857  0.1394
 1793SOL    MW4 6946   6.408   1.643   1.183 -0.2212 -0.1452 -0.9399
 1794SOL     OW 6947   5.884   6.085   1.565  0.3641 -0.2184 -0.0752
 1794SOL    HW2 6948   5.796   6.115   1.542  0.6582  2.0198  1.3678
 1794SOL    HW3 6949   5.934   6.166   1.577  2.0211 -1.3925  1.3728
 1794SOL    MW4 6950   5.879   6.100   1.563 -0.1788  0.3851  0.4242
 1795SOL     OW 6951   6.222   4.103   3.457  0.2418  0.4666 -0.5691
 1795SOL    HW2 6952   6.271   4.041   3.404  0.0588  0.6065 -0.9029
 1795SOL    HW3 6953   6.198   4.054   3.536  1.0537  0.4435 -0.3281
 1795SOL    MW4 6954   6.225   4.089   3.460 -0.1858  0.0973  0.5394
 1796SOL     OW 6955   0.537   2.772   1.484 -0.1621  0.0046 -0.1847
 1796SOL    HW2 6956   0.464   2.732   1.436 -0.2847  1.4232 -1.2316
 1796SOL    HW3 6957   0.570   2.840   1.426  1.1159  0.3222  0.8583
 1796SOL    MW4 6958   0.531   2.775   1.470 -0.1587 -0.2273  0.0985
 1797SOL     OW 6959   3.390   1.190   2.401  0.1254 -0.7590  0.1882
 1797SOL    HW2 6960   3.328   1.142   2.456  0.3963 -0.8061  0.4519
 1797SOL    HW3 6961   3.365   1.166   2.311 -0.4366 -0.5303  0.2785
 1797SOL    MW4 6962   3.379   1.180   2.396  0.3660  0.4562 -0.3187
 1798SOL     OW 6963   2.217   0.919   4.155  0.2463 -0.6860  0.3930
 1798SOL    HW2 6964   2.308   0.894   4.140  0.6341  1.0437 -0.4180
 1798SOL    HW3 6965   2.178   0.843   4.198  2.6644 -0.5817  3.0586
 1798SOL    MW4 6966   2.224   0.906   4.159 -0.0731 -0.1714  0.4583
 1799SOL     OW 6967   2.497   0.256   3.826 -0.0791  0.1488  0.0610
 1799SOL    HW2 6968   2.494   0.350   3.844 -0.4749  0.2238 -0.3522
 1799SOL    HW3 6969   2.406   0.233   3.805  0.2233 -0.0496 -1.1431
 1799SOL    MW4 6970   2.485   0.265   3.826  0.6230  1.0230  0.5197
 1800SOL     OW 6971   2.253   5.980   1.709  0.0502  0.5482  0.6974
 1800SOL    HW2 6972   2.273   6.071   1.688  0.1192  0.5073  0.5843
 1800SOL    HW3 6973   2.172   5.962   1.662 -0.1876  0.6742  1.0515
 1800SOL    MW4 6974   2.245   5.990   1.700 -0.2169 -0.2459 -0.3541
 1801SOL     OW 6975   3.422   6.325   3.494 -0.3911 -0.3088  0.9139
 1801SOL    HW2 6976   3.459   6.362   3.574 -0.4067 -0.1492  0.8481
 1801SOL    HW3 6977   3.499   6.307   3.439 -0.4818  2.6494 -0.3849
 1801SOL    MW4 6978   3.437   6.328   3.497  0.1073  0.0224 -0.3931
 1802SOL     OW 6979   4.394   5.521   4.804 -0.6422  0.2413  0.5334
 1802SOL    HW2 6980   4.299   5.516   4.794 -0.5492 -1.7087  0.1695
 1802SOL    HW3 6981   4.424   5.432   4.787  1.3175  0.9407  0.0934
 1802SOL    MW4 6982   4.385   5.509   4.801 -0.2988 -0.4873 -0.4074
 1803SOL     OW 6983   0.363   3.942   3.987  0.0700 -0.1884 -0.3899
 1803SOL    HW2 6984   0.278   3.902   3.968 -0.2279  0.0429  0.3918
 1803SOL    HW3 6985   0.367   3.945   4.083  1.5735 -1.4539 -0.3812
 1803SOL    MW4 6986   0.352   3.937   3.997 -0.1481  0.3278 -0.4021
 1804SOL     OW 6987   2.173   5.426   3.283  0.0316 -0.4545  0.2263
 1804SOL    HW2 6988   2.133   5.511   3.263  0.1777 -0.5471 -0.4629
 1804SOL    HW3 6989   2.098   5.370   3.306 -0.4962 -1.1215 -2.7580
 1804SOL    MW4 6990   2.158   5.430   3.283 -0.0816  0.2993 -0.4796
 1805SOL     OW 6991   0.507   1.073   4.095  0.5753 -0.1234 -0.7374
 1805SOL    HW2 6992   0.576   1.025   4.140 -0.3994 -0.3430  0.5569
 1805SOL    HW3 6993   0.434   1.010   4.089 -1.0220  1.3379  1.7069
 1805SOL    MW4 6994   0.506   1.058   4.100  0.1517  0.2876 -0.4162
 1806SOL     OW 6995   1.448   0.713   1.601 -0.0387  0.3779 -0.2617
 1806SOL    HW2 6996   1.437   0.789   1.658  0.6913  2.0051 -2.1847
 1806SOL    HW3 6997   1.387   0.728   1.529  2.2011  0.7261 -2.1904
 1806SOL    MW4 6998   1.438   0.725   1.599 -0.2664  0.4090 -0.0034
 1807SOL     OW 6999   0.902   6.028   3.676  0.2721 -0.2547  0.1964
 1807SOL    HW2 7000   0.889   6.049   3.584 -1.5895 -0.7130  0.3296
 1807SOL    HW3 7001   0.984   5.978   3.677  1.2447  1.2428 -0.9592
 1807SOL    MW4 7002   0.911   6.024   3.664  0.1240  0.3817  0.0353
 1808SOL     OW 7003   1.552   1.615   2.426 -0.4111  0.1094 -0.2136
 1808SOL    HW2 7004   1.632   1.573   2.395 -1.0906 -1.7792  0.4422
 1808SOL    HW3 7005   1.578   1.660   2.507  0.2552  0.6433 -0.7196
 1808SOL    MW4 7006   1.566   1.616   2.433 -0.0258  0.5684  0.3797
 1809SOL     OW 7007   4.811   2.483   2.251 -0.3432  0.2415  0.1223
 1809SOL    HW2 7008   4.774   2.545   2.314 -2.3493 -0.5418 -0.2083
 1809SOL    HW3 7009   4.794   2.397   2.289 -2.4365 -0.2905 -1.8421
 1809SOL    MW4 7010   4.804   2.480   2.264  0.3998  0.0044  0.2974
 1810SOL     OW 7011   2.800   0.610   5.101 -0.0636  0.1081  0.0364
 1810SOL    HW2 7012   2.748   0.539   5.138  1.0333 -0.7372  0.0038
 1810SOL    HW3 7013   2.785   0.684   5.160 -0.2016 -0.5308  0.8211
 1810SOL    MW4 7014   2.791   0.611   5.114 -0.0853  0.1626 -0.5050
 1811SOL     OW 7015   5.680   4.414   2.818 -0.0761  0.0502  0.5402
 1811SOL    HW2 7016   5.695   4.423   2.913  1.6743 -1.4454  0.4465
 1811SOL    HW3 7017   5.733   4.484   2.779 -2.0731  1.7427  0.6630
 1811SOL    MW4 7018   5.689   4.425   2.826  0.0852 -0.4290  0.2339
 1812SOL     OW 7019   3.772   5.280   2.523  0.1746  0.4153 -0.6953
 1812SOL    HW2 7020   3.823   5.221   2.468  0.2714  0.1685 -0.3505
 1812SOL    HW3 7021   3.832   5.353   2.542  0.4240  0.1000 -0.2488
 1812SOL    MW4 7022   3.787   5.282   2.519 -0.2210 -0.3414 -0.1452
 1813SOL     OW 7023   3.502   1.267   4.765  0.2813  0.2373 -0.6128
 1813SOL    HW2 7024   3.540   1.341   4.717 -2.0891  1.5495 -0.6241
 1813SOL    HW3 7025   3.547   1.268   4.849 -0.4105  2.4713 -0.1742
 1813SOL    MW4 7026   3.513   1.277   4.770  0.2099 -0.0369  0.3181
 1814SOL     OW 7027   3.171   0.403   4.101  0.4721  0.1756  0.3594
 1814SOL    HW2 7028   3.186   0.345   4.026 -0.4050  0.6419 -0.1880
 1814SOL    HW3 7029   3.225   0.480   4.082  0.9819 -0.0931  0.6790
 1814SOL    MW4 7030   3.180   0.406   4.089  0.0548 -0.1408  0.8095
 1815SOL     OW 7031   5.494   4.826   5.910 -0.7449 -0.1572  0.1121
 1815SOL    HW2 7032   5.571   4.881   5.922 -1.0000  0.1044  0.5914
 1815SOL    HW3 7033   5.444   4.837   5.991 -1.5055  0.0325 -0.3634
 1815SOL    MW4 7034   5.498   4.835   5.922  0.7782 -0.1672  0.1265
 1816SOL     OW 7035   6.038   4.300   2.922 -0.0825  0.3606  0.1530
 1816SOL    HW2 7036   6.014   4.349   3.001 -0.2292  2.6662 -1.2524
 1816SOL    HW3 7037   5.954   4.274   2.884 -0.0608  0.5737 -0.0403
 1816SOL    MW4 7038   6.023   4.303   2.927 -0.6203  0.4159  0.1972
 1817SOL     OW 7039   1.147   1.770   3.828 -0.1163  0.3714  0.0313
 1817SOL    HW2 7040   1.160   1.678   3.852  1.0052  0.0762 -1.5194
 1817SOL    HW3 7041   1.126   1.768   3.735  0.4903  1.7179 -0.1656
 1817SOL    MW4 7042   1.146   1.758   3.819 -0.0939 -0.2765 -0.5147
 1818SOL     OW 7043   0.633   3.523   5.899 -0.4207  0.4452 -0.5604
 1818SOL    HW2 7044   0.623   3.582   5.824 -1.8730  1.0215  0.0540
 1818SOL    HW3 7045   0.727   3.506   5.903 -0.1878  1.2721 -1.8479
 1818SOL    MW4 7046   0.644   3.529   5.889  0.3963 -0.4858  0.5114
 1819SOL     OW 7047   5.102   5.644   0.432  0.2283 -0.4782  0.2514
 1819SOL    HW2 7048   5.080   5.638   0.525  1.7315  2.0474  0.8876
 1819SOL    HW3 7049   5.192   5.676   0.431  0.2242 -0.3656 -2.0933
 1819SOL    MW4 7050   5.111   5.648   0.444 -0.1448 -0.9213  0.1692
 1820SOL     OW 7051   0.956   3.283   1.088 -0.3864 -0.3715  0.0968
 1820SOL    HW2 7052   0.982   3.193   1.108  0.9501 -0.1019 -0.3535
 1820SOL    HW3 7053   0.958   3.328   1.173 -3.6256 -1.3104  0.8179
 1820SOL    MW4 7054   0.960   3.277   1.102 -0.0523  0.1084 -0.0757
 1821SOL     OW 7055   3.840   2.837   5.420 -0.1850 -0.7458 -0.3437
 1821SOL    HW2 7056   3.914   2.877   5.466 -0.2859 -1.0773  0.1067
 1821SOL    HW3 7057   3.834   2.886   5.338 -0.5615  0.4171  0.3629
 1821SOL    MW4 7058   3.849   2.848   5.415 -0.1092  0.0860 -0.0741
 1822SOL     OW 7059   5.987   5.305   3.942  0.1460  0.2646  0.2289
 1822SOL    HW2 7060   5.955   5.390   3.970 -0.2825 -0.0212  0.6188
 1822SOL    HW3 7061   6.062   5.288   3.999 -1.9782 -1.2747  2.8128
 1822SOL    MW4 7062   5.993   5.314   3.953 -0.0606  0.4023 -0.0565
 1823SOL     OW 7063   0.565   2.824   5.114 -0.4573  0.0212  0.3227
 1823SOL    HW2 7064   0.559   2.911   5.074  0.7404 -0.0305 -0.0102
 1823SOL    HW3 7065   0.536   2.764   5.046  3.2641 -0.2339 -1.2451
 1823SOL    MW4 7066   0.560   2.828   5.100  0.0131  0.4191 -0.0559
 1824SOL     OW 7067   2.945   0.555   4.107 -0.8216 -0.0523 -0.1472
 1824SOL    HW2 7068   3.018   0.494   4.096  1.1895  2.1931  0.0581
 1824SOL    HW3 7069   2.955   0.589   4.196 -2.0650  0.4099 -0.1657
 1824SOL    MW4 7070   2.956   0.552   4.117  0.6228  0.4416  0.1604
 1825SOL     OW 7071   6.125   5.915   1.560 -0.3669 -0.1921  0.3223
 1825SOL    HW2 7072   6.126   5.863   1.480 -0.2054 -0.2171  0.3406
 1825SOL    HW3 7073   6.054   5.978   1.546 -1.1369 -0.9559  0.6413
 1825SOL    MW4 7074   6.116   5.916   1.548 -0.2653 -0.3703 -0.3483
 1826SOL     OW 7075   5.473   4.524   6.139  0.0644 -0.1928 -0.5149
 1826SOL    HW2 7076   5.428   4.541   6.222 -3.1686 -1.8132 -1.7612
 1826SOL    HW3 7077   5.506   4.434   6.148  0.4233 -0.0820 -0.7097
 1826SOL    MW4 7078   5.472   4.514   6.151 -0.0438 -0.5332 -0.1231
 1827SOL     OW 7079   1.575   2.835   4.784  0.6323 -0.0573  0.1046
 1827SOL    HW2 7080   1.537   2.915   4.819  2.5972  0.6804  0.6474
 1827SOL    HW3 7081   1.663   2.859   4.758  0.3667 -1.3832 -2.3711
 1827SOL    MW4 7082   1.581   2.848   4.785 -0.5022 -0.2258 -0.3819
 1828SOL     OW 7083   5.043   5.247   2.625 -0.4139 -0.2852  0.6909
 1828SOL    HW2 7084   4.994   5.260   2.544 -0.5638  0.2722  0.8654
 1828SOL    HW3 7085   5.030   5.329   2.674 -0.8909 -0.8705  1.5762
 1828SOL    MW4 7086   5.035   5.260   2.621  0.1423 -0.0659  0.1197
 1829SOL     OW 7087   2.555   3.481   5.799 -0.1385 -0.2146  0.3368
 1829SOL    HW2 7088   2.461   3.482   5.778 -0.1142 -1.4585  0.1097
 1829SOL    HW3 7089   2.598   3.467   5.715  0.3202  1.1468  0.3155
 1829SOL    MW4 7090   2.548   3.479   5.785 -0.2002  0.2221  0.1064
 1830SOL     OW 7091   1.533   1.958   1.382  0.1594 -0.1181  0.2333
 1830SOL    HW2 7092   1.504   1.915   1.302 -2.7471  1.2634  0.4296
 1830SOL    HW3 7093   1.552   1.885   1.442 -2.4252 -1.2208 -0.1636
 1830SOL    MW4 7094   1.532   1.942   1.380  0.6624 -0.2012 -0.0857
 1831SOL     OW 7095   4.017   5.790   1.681 -0.0643 -0.1398  0.0641
 1831SOL    HW2 7096   3.987   5.878   1.657  1.9054  0.6540  0.3557
 1831SOL    HW3 7097   3.988   5.780   1.772  2.5564  1.6579  1.2253
 1831SOL    MW4 7098   4.009   5.801   1.690  0.0195 -0.2959 -0.3077
 1832SOL     OW 7099   1.569   6.007   1.453  0.4536 -0.0347  0.3509
 1832SOL    HW2 7100   1.537   5.929   1.408  0.8381 -0.0571  0.1135
 1832SOL    HW3 7101   1.492   6.063   1.461  0.4984  0.2403 -0.8864
 1832SOL    MW4 7102   1.555   6.004   1.448  0.1631 -0.2178  0.7266
 1833SOL     OW 7103   4.666   3.415   0.204 -0.2591  0.1366  0.1214
 1833SOL    HW2 7104   4.613   3.359   0.261 -2.1909  1.9712  0.2196
 1833SOL    HW3 7105   4.705   3.480   0.263 -1.1409  1.1967 -0.4265
 1833SOL    MW4 7106   4.664   3.416   0.220  0.3988 -0.1414 -0.2554
 1834SOL     OW 7107   5.835   0.826   0.280  1.2863  0.5425 -0.9833
 1834SOL    HW2 7108   5.755   0.848   0.231  0.9190 -0.5562 -0.9068
 1834SOL    HW3 7109   5.886   0.907   0.279  0.6797  0.9403 -2.0070
 1834SOL    MW4 7110   5.831   0.840   0.273 -0.2551 -0.1161  0.0084
 1835SOL     OW 7111   4.746   4.270   1.496 -0.2839 -0.6928  0.2962
 1835SOL    HW2 7112   4.765   4.322   1.573 -0.1596  0.6334 -0.5920
 1835SOL    HW3 7113   4.665   4.306   1.461 -0.3915 -1.3348 -0.1450
 1835SOL    MW4 7114   4.738   4.282   1.501  0.1047  0.0264  0.1276
 1836SOL     OW 7115   1.459   4.065   2.274 -0.4507 -0.6399  0.1387
 1836SOL    HW2 7116   1.453   4.093   2.183 -0.0876 -0.1242  0.2692
 1836SOL    HW3 7117   1.393   4.118   2.319  0.7256  0.5627  0.5111
 1836SOL    MW4 7118   1.449   4.076   2.268  0.4013  0.1932 -0.0932
 1837SOL     OW 7119   2.181   3.593   6.002 -0.3404 -0.4287 -0.2553
 1837SOL    HW2 7120   2.173   3.499   6.020 -1.5619 -0.1617  0.6969
 1837SOL    HW3 7121   2.206   3.632   6.086  1.4409 -0.0105 -0.9205
 1837SOL    MW4 7122   2.183   3.585   6.015  0.4657  0.0169 -0.4673
 1838SOL     OW 7123   5.823   1.262   3.685  0.2584 -0.4378 -0.0022
 1838SOL    HW2 7124   5.752   1.204   3.657  0.9381 -0.8941 -0.8149
 1838SOL    HW3 7125   5.803   1.280   3.777 -0.9294 -0.5191 -0.2192
 1838SOL    MW4 7126   5.811   1.256   3.693  0.5204  0.2219 -0.2179
 1839SOL     OW 7127   4.571   1.971   4.195 -0.1324 -0.2943  0.5344
 1839SOL    HW2 7128   4.626   1.900   4.163 -1.2497 -1.0468  0.2253
 1839SOL    HW3 7129   4.548   1.945   4.285  0.2451  0.1676  0.7721
 1839SOL    MW4 7130   4.575   1.958   4.203  0.3122  0.0610  0.4005
 1840SOL     OW 7131   3.496   1.795   2.847 -0.8073 -0.4446  0.1083
 1840SOL    HW2 7132   3.539   1.875   2.816  0.9514 -1.3849  0.0052
 1840SOL    HW3 7133   3.506   1.798   2.942 -0.9819 -0.4260  0.1268
 1840SOL    MW4 7134   3.503   1.806   2.855  0.2177 -0.3305  0.3201
 1841SOL     OW 7135   1.187   2.461   5.718 -0.0893  0.2650  0.4586
 1841SOL    HW2 7136   1.130   2.390   5.746 -1.1032  1.0546  0.4284
 1841SOL    HW3 7137   1.254   2.467   5.787  0.0055 -0.6954  0.4613
 1841SOL    MW4 7138   1.189   2.452   5.731  0.4349 -0.1337  0.6372
 1842SOL     OW 7139   0.949   5.784   5.958 -0.7643 -0.0551  0.2683
 1842SOL    HW2 7140   1.025   5.742   5.996 -0.9637 -0.8640 -0.2184
 1842SOL    HW3 7141   0.931   5.858   6.017 -0.4600 -0.6836  1.1737
 1842SOL    MW4 7142   0.956   5.789   5.971 -0.0515 -0.0091  0.5638
 1843SOL     OW 7143   2.706   3.596   2.750 -0.0567  0.7650  0.0071
 1843SOL    HW2 7144   2.686   3.687   2.773  0.2091  0.4058  1.8058
 1843SOL    HW3 7145   2.676   3.587   2.659 -0.2092  2.5985 -0.1636
 1843SOL    MW4 7146   2.699   3.607   2.741  0.9095  0.1537 -0.1972
 1844SOL     OW 7147   3.583   1.692   3.397 -0.1725 -0.1449  0.4799
 1844SOL    HW2 7148   3.673   1.679   3.367  0.0088 -0.0202  0.9615
 1844SOL    HW3 7149   3.539   1.735   3.324  0.7603  1.9298  1.0877
 1844SOL    MW4 7150   3.589   1.696   3.383  0.3176  0.1835  0.7328
 1845SOL     OW 7151   6.060   3.844   2.433  0.0236 -0.7725  0.3071
 1845SOL    HW2 7152   6.079   3.829   2.341  0.9052 -1.0002  0.5228
 1845SOL    HW3 7153   6.035   3.937   2.437  0.8909 -0.5207 -0.0166
 1845SOL    MW4 7154   6.059   3.854   2.422  0.5323 -0.0312  0.4572
 1846SOL     OW 7155   0.205   2.862   5.052  0.1929 -0.4360  0.2621
 1846SOL    HW2 7156   0.197   2.947   5.009  1.0419 -0.4095  0.1475
 1846SOL    HW3 7157   0.244   2.805   4.986  0.2998 -0.7312  0.5756
 1846SOL    MW4 7158   0.209   2.865   5.038  0.6855 -0.5354 -0.4876
 1847SOL     OW 7159   3.587   5.461   3.087 -0.0977 -0.2217  0.1695
 1847SOL    HW2 7160   3.637   5.401   3.033  0.4708  0.3441  0.0539
 1847SOL    HW3 7161   3.496   5.433   3.077  0.0249 -0.2766 -0.8896
 1847SOL    MW4 7162   3.582   5.450   3.079 -0.6219  0.1677 -0.3409
 1848SOL     OW 7163   1.867   0.609   1.197  0.7156 -0.7005 -0.0465
 1848SOL    HW2 7164   1.861   0.689   1.144 -1.9683 -0.8974 -0.1952
 1848SOL    HW3 7165   1.865   0.641   1.287 -2.1829 -0.5436 -0.0715
 1848SOL    MW4 7166   1.866   0.624   1.202  0.3360 -0.1473  0.2485
 1849SOL     OW 7167   3.685   0.775   0.202 -0.1683  0.0183 -0.2250
 1849SOL    HW2 7168   3.703   0.865   0.231  2.1989 -0.1154 -1.0402
 1849SOL    HW3 7169   3.674   0.726   0.283  1.1081  0.6016  0.3342
 1849SOL    MW4 7170   3.686   0.781   0.216  0.1466 -0.2948  0.8292
 1850SOL     OW 7171   2.566   0.702   3.412 -0.1267  0.0490  0.2036
 1850SOL    HW2 7172   2.584   0.617   3.453 -0.5727 -0.7814 -1.2221
 1850SOL    HW3 7173   2.477   0.723   3.441 -0.0708 -0.0441  0.4491
 1850SOL    MW4 7174   2.557   0.693   3.421 -0.0053 -0.4807 -0.2211
 1851SOL     OW 7175   6.001   1.231   2.310  0.3123 -0.0840 -1.0162
 1851SOL    HW2 7176   6.007   1.314   2.358  1.1361 -0.4610 -0.4371
 1851SOL    HW3 7177   5.920   1.238   2.260 -0.1821  0.6334 -0.1480
 1851SOL    MW4 7178   5.991   1.243   2.310  0.7744  0.3145  0.3257
 1852SOL     OW 7179   5.540   0.436   4.841  0.0288  0.5836 -0.3525
 1852SOL    HW2 7180   5.631   0.424   4.869  0.6982 -0.3604 -2.7653
 1852SOL    HW3 7181   5.542   0.511   4.781 -0.7882  0.5302 -0.4657
 1852SOL    MW4 7182   5.552   0.444   4.837  0.1992  0.3699 -0.4189
 1853SOL     OW 7183   0.803   6.052   2.168 -0.1607 -0.5856  0.3268
 1853SOL    HW2 7184   0.858   6.065   2.245  0.4519  0.7941 -0.3014
 1853SOL    HW3 7185   0.805   5.958   2.153  2.1821 -0.5829  0.2432
 1853SOL    MW4 7186   0.810   6.041   2.176 -0.7782 -0.3393  0.4471
 1854SOL     OW 7187   2.618   4.698   5.166  0.0614  0.5507  0.5098
 1854SOL    HW2 7188   2.580   4.753   5.234 -1.4110  0.9280 -0.5626
 1854SOL    HW3 7189   2.661   4.759   5.106 -2.0405  0.6945 -0.9789
 1854SOL    MW4 7190   2.619   4.713   5.167  0.3082 -0.3328 -0.1715
 1855SOL     OW 7191   3.717   1.712   1.647  0.0673  0.0122  0.4362
 1855SOL    HW2 7192   3.647   1.765   1.610 -0.4585  0.1613  1.5893
 1855SOL    HW3 7193   3.710   1.627   1.603  0.4776  0.6451 -0.9239
 1855SOL    MW4 7194   3.707   1.708   1.636 -0.4150  0.4164  0.4225
 1856SOL     OW 7195   4.977   3.705   2.439  0.4546  1.1802  0.0268
 1856SOL    HW2 7196   5.047   3.695   2.375  0.4161  2.3893 -0.2272
 1856SOL    HW3 7197   4.987   3.629   2.497  0.2544 -0.1764 -1.6051
 1856SOL    MW4 7198   4.987   3.693   2.438 -0.5168 -0.1429  0.3797
 1857SOL     OW 7199   4.597   0.306   2.401 -0.1321 -0.1602  0.8174
 1857SOL    HW2 7200   4.529   0.357   2.445 -0.0702  1.0858 -0.4585
 1857SOL    HW3 7201   4.555   0.273   2.322  0.4723 -0.1965  0.5066
 1857SOL    MW4 7202   4.583   0.309   2.396  0.2143  0.3660 -0.0623
 1858SOL     OW 7203   1.445   5.479   0.027 -0.1470  0.3064 -0.1831
 1858SOL    HW2 7204   1.484   5.396   0.001 -0.0509  0.4217 -0.4039
 1858SOL    HW3 7205   1.509   5.545   0.002  0.0246  0.4083  0.4973
 1858SOL    MW4 7206   1.459   5.477   0.020 -0.7320  0.1763 -0.3281
 1859SOL     OW 7207   3.975   2.555   5.080  0.2007 -0.3984 -0.1112
 1859SOL    HW2 7208   3.991   2.461   5.068  2.9400 -0.2641  1.4858
 1859SOL    HW3 7209   4.047   2.597   5.033 -0.2522  0.8474  0.2793
 1859SOL    MW4 7210   3.987   2.548   5.073 -0.9834 -0.0862  0.0140
 1860SOL     OW 7211   3.795   5.939   1.278  0.1222  0.4833  0.0559
 1860SOL    HW2 7212   3.761   6.011   1.331  2.2183  1.0647  0.6945
 1860SOL    HW3 7213   3.814   5.870   1.342 -2.2861 -0.8865 -0.5948
 1860SOL    MW4 7214   3.793   5.939   1.294  0.2682  0.3993  0.7730
 1861SOL     OW 7215   1.257   5.727   4.968  0.0702 -0.5534 -0.2800
 1861SOL    HW2 7216   1.268   5.796   5.034 -0.8632  2.3040 -2.8859
 1861SOL    HW3 7217   1.172   5.687   4.989  0.3929 -0.6301  0.9763
 1861SOL    MW4 7218   1.247   5.731   4.980  0.5096 -0.2452 -0.0844
 1862SOL     OW 7219   2.505   4.514   5.006  0.2288  0.2269  0.3054
 1862SOL    HW2 7220   2.548   4.574   5.067  1.5014 -0.2416 -0.0982
 1862SOL    HW3 7221   2.549   4.431   5.019 -1.9095 -0.8268  1.2848
 1862SOL    MW4 7222   2.517   4.511   5.015  0.3540 -0.1573 -0.1582
 1863SOL     OW 7223   0.335   1.227   5.128  0.4973 -0.2524  0.2980
 1863SOL    HW2 7224   0.401   1.257   5.191  0.8303 -0.1563 -0.0915
 1863SOL    HW3 7225   0.277   1.302   5.116  1.4999  0.3688 -0.8997
 1863SOL    MW4 7226   0.336   1.241   5.134 -0.2071 -0.6456  0.0390
 1864SOL     OW 7227   1.019   2.960   0.642  0.0521  0.4792 -0.6756
 1864SOL    HW2 7228   1.102   3.006   0.629  1.5902 -1.9719 -0.1370
 1864SOL    HW3 7229   0.962   2.994   0.573  1.0214  3.1508 -0.2996
 1864SOL    MW4 7230   1.023   2.971   0.631  0.3872 -0.3562  0.0060
 1865SOL     OW 7231   3.234   4.400   6.292 -0.1047  0.4061 -0.5482
 1865SOL    HW2 7232   3.178   4.407   6.214 -0.6112 -3.0134 -0.6498
 1865SOL    HW3 7233   3.285   4.320   6.278  0.9907  0.5850  1.9125
 1865SOL    MW4 7234   3.233   4.390   6.280  0.3195 -0.0067  0.1731
 1866SOL     OW 7235   5.351   5.870   4.907  0.3505 -0.2646 -0.0134
 1866SOL    HW2 7236   5.393   5.846   4.990 -2.9450 -0.7150  1.7060
 1866SOL    HW3 7237   5.305   5.790   4.880 -0.7706  0.6380 -0.8584
 1866SOL    MW4 7238   5.350   5.856   4.914 -0.6932  0.1386 -0.2327
 1867SOL     OW 7239   1.426   2.693   3.905 -0.2588  0.2804 -0.5754
 1867SOL    HW2 7240   1.476   2.612   3.891 -0.4374  0.0625  0.0029
 1867SOL    HW3 7241   1.462   2.729   3.986 -0.5334  0.5096 -0.5550
 1867SOL    MW4 7242   1.438   2.687   3.914  0.0433 -0.3361 -0.3806
 1868SOL     OW 7243   5.323   3.231   4.701 -0.1250 -0.2709 -0.4975
 1868SOL    HW2 7244   5.318   3.199   4.611  0.4000  1.2210 -1.1046
 1868SOL    HW3 7245   5.332   3.153   4.754  1.1022 -1.1395 -1.8787
 1868SOL    MW4 7246   5.324   3.217   4.696 -0.5465 -0.6162  0.4980
 1869SOL     OW 7247   6.233   5.301   3.029 -0.4746  0.2297  0.0844
 1869SOL    HW2 7248   6.225   5.260   3.115  0.6454  0.2756  0.2293
 1869SOL    HW3 7249   6.163   5.262   2.977 -0.0146 -1.2050  0.4915
 1869SOL    MW4 7250   6.223   5.290   3.033 -0.4109 -0.4118 -0.0479
 1870SOL     OW 7251   1.194   2.773   3.153 -0.1384 -0.2097  0.2265
 1870SOL    HW2 7252   1.121   2.833   3.173 -0.7993 -0.8948 -0.0850
 1870SOL    HW3 7253   1.203   2.778   3.058  1.6265  1.4583  0.4233
 1870SOL    MW4 7254   1.185   2.782   3.143 -0.3742  0.0769 -0.2711
 1871SOL     OW 7255   0.387   3.484   0.237  0.1876  0.0071 -0.0709
 1871SOL    HW2 7256   0.320   3.520   0.295  0.6440  1.1313 -0.2078
 1871SOL    HW3 7257   0.348   3.489   0.150  0.1865  0.0001 -0.0708
 1871SOL    MW4 7258   0.373   3.490   0.233  0.5169  0.8388 -0.3201
 1872SOL     OW 7259   0.797   1.597   4.666 -0.0629  0.1439 -0.0003
 1872SOL    HW2 7260   0.799   1.682   4.622  0.6631  0.0945 -0.0879
 1872SOL    HW3 7261   0.877   1.554   4.636 -0.4294 -0.5706  0.0416
 1872SOL    MW4 7262   0.808   1.603   4.656  0.1427 -0.6564  0.0793
 1873SOL     OW 7263   0.359   0.131   5.388 -0.0719 -0.0396 -0.2620
 1873SOL    HW2 7264   0.349   0.155   5.480  0.9515 -0.5004 -0.0189
 1873SOL    HW3 7265   0.271   0.104   5.361  0.1542 -2.9161  1.4529
 1873SOL    MW4 7266   0.346   0.131   5.397  0.2373  0.4471  0.5247
 1874SOL     OW 7267   5.483   3.452   0.189  0.6644 -0.1363  0.1150
 1874SOL    HW2 7268   5.522   3.409   0.113  0.3703 -3.1789  1.5328
 1874SOL    HW3 7269   5.552   3.451   0.255  1.1222  3.0149 -0.1190
 1874SOL    MW4 7270   5.497   3.446   0.187  0.5688  0.1649  0.1630
 1875SOL     OW 7271   2.871   1.062   0.848 -0.5273 -0.3820 -0.6337
 1875SOL    HW2 7272   2.778   1.077   0.827 -0.8430  0.5122  1.1732
 1875SOL    HW3 7273   2.877   1.081   0.941  1.5706 -0.0408 -0.8041
 1875SOL    MW4 7274   2.859   1.067   0.857  0.0690  0.0272  0.1593
 1876SOL     OW 7275   1.518   2.943   0.843 -0.0990  1.0814  0.0571
 1876SOL    HW2 7276   1.600   2.963   0.798  0.0364  1.3879  0.4346
 1876SOL    HW3 7277   1.483   2.867   0.796 -0.0766  1.5336 -0.6981
 1876SOL    MW4 7278   1.524   2.936   0.831 -0.1490  0.5350 -0.0054
 1877SOL     OW 7279   5.784   4.975   3.828 -0.0278 -0.0842 -0.0434
 1877SOL    HW2 7280   5.739   5.054   3.859 -0.3622  0.6771 -2.2846
 1877SOL    HW3 7281   5.715   4.922   3.788  0.5617 -0.3538 -0.7366
 1877SOL    MW4 7282   5.769   4.979   3.827 -0.3151  0.5299 -0.1896
 1878SOL     OW 7283   5.939   5.077   3.166  0.3969 -0.0615 -0.2709
 1878SOL    HW2 7284   6.015   5.026   3.196  0.6507  0.8512  0.7159
 1878SOL    HW3 7285   5.928   5.144   3.233  0.7322  1.8565 -2.0386
 1878SOL    MW4 7286   5.948   5.079   3.179  0.0778 -0.0286  0.4994
 1879SOL     OW 7287   1.905   0.026   6.228 -0.0512  0.3487 -0.0501
 1879SOL    HW2 7288   1.892  -0.003   6.137 -1.0116 -1.6225  0.6602
 1879SOL    HW3 7289   1.862   0.111   6.232 -2.8201 -0.9084 -0.7225
 1879SOL    MW4 7290   1.897   0.033   6.216  0.1649  0.0628 -0.1868
 1880SOL     OW 7291   0.660   2.969   4.781 -0.4476 -0.3642 -0.8808
 1880SOL    HW2 7292   0.647   3.027   4.705 -2.3547 -1.4049 -1.4076
 1880SOL    HW3 7293   0.578   2.975   4.830 -0.4707 -2.1821 -0.6558
 1880SOL    MW4 7294   0.648   2.978   4.777 -0.2905  0.0787  0.7759
 1881SOL     OW 7295   0.866   2.752   3.059  0.4275 -0.7363  0.2253
 1881SOL    HW2 7296   0.844   2.835   3.102 -2.6704 -0.9614 -0.7043
 1881SOL    HW3 7297   0.899   2.696   3.130 -0.0666  0.4143  1.3945
 1881SOL    MW4 7298   0.867   2.755   3.074 -0.4783  0.1733  0.1823
 1882SOL     OW 7299   0.868   1.068   1.012  0.5912  0.6235 -0.2737
 1882SOL    HW2 7300   0.870   1.162   1.030 -1.8338  0.5695  0.6335
 1882SOL    HW3 7301   0.903   1.028   1.092 -1.7299  0.6955  0.8554
 1882SOL    MW4 7302   0.873   1.075   1.025 -0.2608 -0.1205  0.0324
 1883SOL     OW 7303   6.088   2.421   5.518  0.4126  0.1195 -0.0801
 1883SOL    HW2 7304   6.127   2.334   5.510  0.3570 -0.0226  1.0392
 1883SOL    HW3 7305   6.152   2.471   5.569 -0.7151 -0.0415  1.5569
 1883SOL    MW4 7306   6.102   2.416   5.524  0.0592 -0.0291 -0.0975
 1884SOL     OW 7307   5.211   4.035   4.161 -0.3685  0.0673 -0.5768
 1884SOL    HW2 7308   5.185   3.971   4.094  1.3652 -1.2250 -0.0809
 1884SOL    HW3 7309   5.274   4.092   4.116  1.2566 -1.1690  0.0504
 1884SOL    MW4 7310   5.216   4.034   4.146 -0.7365  0.9016  0.4192
 1885SOL     OW 7311   0.984   1.305   5.425 -0.3039 -0.2656  0.5657
 1885SOL    HW2 7312   0.936   1.365   5.482  0.6301  1.4157 -0.3360
 1885SOL    HW3 7313   1.054   1.271   5.480 -1.1477 -0.9731  1.2374
 1885SOL    MW4 7314   0.987   1.309   5.440 -0.2943  0.0087 -0.3450
 1886SOL     OW 7315   1.298   1.910   3.208 -0.6212  0.3696 -0.5455
 1886SOL    HW2 7316   1.275   1.885   3.119  0.3129  0.1380 -0.7264
 1886SOL    HW3 7317   1.358   1.983   3.198 -0.3445  0.2067 -0.1103
 1886SOL    MW4 7318   1.303   1.916   3.195  0.2986 -0.0307  0.0212
 1887SOL     OW 7319   3.267   3.798   1.086  0.3345  0.7511  0.2606
 1887SOL    HW2 7320   3.216   3.778   1.165  1.6382  0.0654  0.9614
 1887SOL    HW3 7321   3.284   3.712   1.047  1.7476  0.8625  0.5747
 1887SOL    MW4 7322   3.262   3.784   1.091  0.5530  0.1857 -0.0918
 1888SOL     OW 7323   0.770   3.288   3.285  0.1096  0.1289  0.4156
 1888SOL    HW2 7324   0.689   3.314   3.327 -0.6151 -0.3669 -0.6260
 1888SOL    HW3 7325   0.772   3.338   3.203  1.0915  0.4820  0.6385
 1888SOL    MW4 7326   0.760   3.298   3.280  0.2090 -0.3472 -0.4384
 1889SOL     OW 7327   5.562   3.932   1.741  0.4232 -0.0710 -0.5027
 1889SOL    HW2 7328   5.506   4.009   1.727 -0.0133 -0.7492 -2.9905
 1889SOL    HW3 7329   5.501   3.864   1.770  0.6693  0.2474  0.8243
 1889SOL    MW4 7330   5.546   3.933   1.743  0.7221  0.0363  0.0293
 1890SOL     OW 7331   0.667   2.102   2.752  0.3211 -0.0884 -0.1676
 1890SOL    HW2 7332   0.664   2.155   2.832 -1.4220  0.2110 -0.3767
 1890SOL    HW3 7333   0.704   2.019   2.779 -0.8812 -0.2364  1.1417
 1890SOL    MW4 7334   0.671   2.098   2.766 -0.1431  0.5208  0.0398
 1891SOL     OW 7335   6.289   2.059   0.455 -0.0635 -0.0518  0.5000
 1891SOL    HW2 7336   6.352   2.131   0.457 -0.6962  0.5734 -0.7822
 1891SOL    HW3 7337   6.305   2.016   0.370 -0.6066 -0.5813  0.6608
 1891SOL    MW4 7338   6.300   2.063   0.444 -0.5101 -0.5977  0.3685
 1892SOL     OW 7339   2.659   1.411   4.418 -0.3104 -0.0678 -0.7090
 1892SOL    HW2 7340   2.646   1.365   4.335  1.0513 -0.5169 -0.6941
 1892SOL    HW3 7341   2.750   1.393   4.441  0.1514  2.2393 -0.4711
 1892SOL    MW4 7342   2.669   1.403   4.410 -0.1755 -0.2839  0.3133
 1893SOL     OW 7343   3.265   3.172   6.257  0.1059  0.0881 -0.7751
 1893SOL    HW2 7344   3.270   3.178   6.162  1.2581  3.0089 -0.6224
 1893SOL    HW3 7345   3.263   3.078   6.275  0.5098 -0.5566 -3.6421
 1893SOL    MW4 7346   3.266   3.160   6.247  0.2166 -0.2885  0.0115
 1894SOL     OW 7347   4.399   5.128   2.205  0.0486  0.1135  0.4523
 1894SOL    HW2 7348   4.321   5.142   2.152  0.8491  0.2842 -0.7344
 1894SOL    HW3 7349   4.434   5.044   2.175 -1.0416 -1.2825  2.7923
 1894SOL    MW4 7350   4.393   5.119   2.194 -0.2630  0.6331 -0.1222
 1895SOL     OW 7351   5.942   4.993   0.661  0.1395 -0.8679 -0.0808
 1895SOL    HW2 7352   5.887   4.919   0.688  0.4091 -1.2827 -0.6503
 1895SOL    HW3 7353   6.029   4.972   0.694  0.5458 -1.5346 -1.4824
 1895SOL    MW4 7354   5.946   4.980   0.669 -0.0159  0.3065  0.3757
 1896SOL     OW 7355   5.901   1.432   4.440  0.1652 -0.4393 -0.3101
 1896SOL    HW2 7356   5.971   1.374   4.470  0.8069 -0.0712 -1.0647
 1896SOL    HW3 7357   5.929   1.519   4.468  1.2265  0.0516 -2.6347
 1896SOL    MW4 7358   5.914   1.435   4.448 -1.1074  0.4165 -0.1546
 1897SOL     OW 7359   4.510   2.262   4.042  0.1828  0.1682  0.2109
 1897SOL    HW2 7360   4.432   2.290   3.994 -0.7710 -1.6046  0.6423
 1897SOL    HW3 7361   4.494   2.170   4.062  1.8503  0.0950  1.4060
 1897SOL    MW4 7362   4.498   2.254   4.038 -0.2649 -0.5271 -0.0693
 1898SOL     OW 7363   6.388   5.192   4.773  0.3787  0.0548 -0.4873
 1898SOL    HW2 7364   6.372   5.228   4.686 -0.1838 -0.0803 -0.4426
 1898SOL    HW3 7365   6.473   5.228   4.799  1.1277 -0.8544 -1.5860
 1898SOL    MW4 7366   6.397   5.202   4.765 -0.1005 -0.1226  0.6897
 1899SOL     OW 7367   2.588   6.054   1.788  0.7307 -0.6432 -0.2038
 1899SOL    HW2 7368   2.652   6.110   1.833  1.0543 -0.8831 -0.3617
 1899SOL    HW3 7369   2.583   5.975   1.841  1.1077 -0.9240 -0.5805
 1899SOL    MW4 7370   2.596   6.051   1.801  0.0396  0.0857  0.0341
 1900SOL     OW 7371   2.404   4.528   2.214 -0.5085 -0.6238  0.4508
 1900SOL    HW2 7372   2.350   4.585   2.268  1.2256  0.7322  0.8232
 1900SOL    HW3 7373   2.343   4.492   2.150 -1.7098  1.5383  0.2857
 1900SOL    MW4 7374   2.389   4.530   2.213 -0.3766 -0.4737 -0.1648
 1901SOL     OW 7375   3.486   1.477   1.294 -0.3680 -0.0267  0.1371
 1901SOL    HW2 7376   3.569   1.455   1.253  0.0104 -1.8589  1.7393
 1901SOL    HW3 7377   3.439   1.529   1.228  1.0275 -1.0483 -1.7477
 1901SOL    MW4 7378   3.491   1.481   1.280 -0.1654 -0.0359  0.0141
 1902SOL     OW 7379   6.325   0.948   2.615  0.5368  0.3194 -0.8067
 1902SOL    HW2 7380   6.234   0.980   2.611  0.3983 -0.1878 -2.7520
 1902SOL    HW3 7381   6.374   1.021   2.652 -0.1609  1.9177 -2.8507
 1902SOL    MW4 7382   6.319   0.962   2.620  0.3202  0.2422  0.0905
 1903SOL     OW 7383   2.371   0.178   5.559  0.0244  0.0129  0.5898
 1903SOL    HW2 7384   2.405   0.262   5.529  0.4603 -0.4903 -0.3643
 1903SOL    HW3 7385   2.443   0.117   5.545 -0.8757 -0.8620 -0.3928
 1903SOL    MW4 7386   2.385   0.181   5.553  0.0153 -0.3249 -0.5999
 1904SOL     OW 7387   2.888   2.066   2.316 -0.8117 -0.1076  0.4757
 1904SOL    HW2 7388   2.973   2.039   2.349 -0.9701 -0.3408  0.7019
 1904SOL    HW3 7389   2.885   2.161   2.331 -0.7185 -0.1486  0.7644
 1904SOL    MW4 7390   2.899   2.075   2.322 -0.1933  0.6196 -0.4942
 1905SOL     OW 7391   5.347   5.795   4.014  0.2128 -0.3403  0.2505
 1905SOL    HW2 7392   5.431   5.812   3.972 -0.0474  0.6934  0.1249
 1905SOL    HW3 7393   5.338   5.866   4.079 -0.7558 -0.1789 -0.0497
 1905SOL    MW4 7394   5.357   5.807   4.017  0.2134 -0.2687  0.3998
 1906SOL     OW 7395   4.092   5.246   1.383  0.0579  0.3082 -0.1031
 1906SOL    HW2 7396   4.035   5.189   1.331  0.8192 -1.0388  0.4748
 1906SOL    HW3 7397   4.178   5.237   1.341  0.7963 -1.1859  1.6182
 1906SOL    MW4 7398   4.096   5.237   1.370  0.4742  0.0078 -0.1729
 1907SOL     OW 7399   4.196   4.844   5.637 -0.1811 -0.1839 -0.1295
 1907SOL    HW2 7400   4.237   4.930   5.624  0.0416  0.5122  3.9418
 1907SOL    HW3 7401   4.104   4.865   5.655 -0.5180 -1.0190 -0.7918
 1907SOL    MW4 7402   4.189   4.858   5.637  0.0756  0.1071  0.2025
 1908SOL     OW 7403   3.629   3.732   4.448  0.3245  0.0809  0.2305
 1908SOL    HW2 7404   3.702   3.697   4.397  0.9223  1.0922  0.3809
 1908SOL    HW3 7405   3.668   3.794   4.509 -0.4548 -0.6289  1.5211
 1908SOL    MW4 7406   3.644   3.736   4.449 -0.4116 -0.3793 -0.5280
 1909SOL     OW 7407   5.559   5.935   1.069 -0.2845  0.1286 -0.0801
 1909SOL    HW2 7408   5.501   5.945   0.994  1.4478  0.5065 -1.4311
 1909SOL    HW3 7409   5.613   6.014   1.068  2.7303 -1.7854 -1.1167
 1909SOL    MW4 7410   5.559   5.947   1.059  0.5698 -0.2585 -0.3005
 1910SOL     OW 7411   5.343   4.839   4.194 -0.3787  0.2371  0.0737
 1910SOL    HW2 7412   5.306   4.754   4.169 -0.2111 -0.2668  1.4289
 1910SOL    HW3 7413   5.305   4.857   4.281 -0.5890  1.6654 -0.2841
 1910SOL    MW4 7414   5.333   4.830   4.202  0.3875 -0.4555 -0.5165
 1911SOL     OW 7415   3.968   3.223   0.883  0.1495 -0.1230  0.2434
 1911SOL    HW2 7416   4.044   3.165   0.877  0.0930 -0.0680 -2.1521
 1911SOL    HW3 7417   3.901   3.178   0.831  0.5229  2.6026 -2.9066
 1911SOL    MW4 7418   3.969   3.209   0.875 -0.1711 -0.2988  0.2828
 1912SOL     OW 7419   4.071   2.356   4.063  0.2156 -0.2328  0.6883
 1912SOL    HW2 7420   4.153   2.386   4.025 -0.0109 -0.9565 -0.4252
 1912SOL    HW3 7421   4.082   2.262   4.074 -0.0090 -0.1510  1.7292
 1912SOL    MW4 7422   4.083   2.347   4.059 -0.1959  0.3715  0.4210
 1913SOL     OW 7423   3.551   5.369   5.548 -0.3022  0.1794 -0.0586
 1913SOL    HW2 7424   3.514   5.440   5.599 -0.3263 -0.2282  0.5093
 1913SOL    HW3 7425   3.631   5.345   5.594  0.5118  0.8285 -1.0828
 1913SOL    MW4 7426   3.557   5.375   5.561 -0.2442  0.1873  0.4267
 1914SOL     OW 7427   2.717   5.348   5.817  0.6092 -0.1224 -0.0052
 1914SOL    HW2 7428   2.663   5.424   5.793  0.3785 -0.3716 -0.2877
 1914SOL    HW3 7429   2.802   5.385   5.839  0.9598  0.1101 -1.5914
 1914SOL    MW4 7430   2.721   5.363   5.817 -0.2259 -0.3738  0.0557
 1915SOL     OW 7431   5.897   3.115   3.365 -0.4842  0.1439  0.1664
 1915SOL    HW2 7432   5.881   3.093   3.457 -1.4213 -1.4201 -0.3367
 1915SOL    HW3 7433   5.830   3.181   3.344 -1.0963 -0.4273  0.2799
 1915SOL    MW4 7434   5.886   3.121   3.374 -0.4435 -0.0083 -0.2711
 1916SOL     OW 7435   3.527   6.108   0.455  0.1851  0.3763 -0.3770
 1916SOL    HW2 7436   3.514   6.151   0.370 -0.7713  1.2316  0.1692
 1916SOL    HW3 7437   3.441   6.073   0.477  0.4291  0.1471  0.2244
 1916SOL    MW4 7438   3.514   6.109   0.446 -0.1568 -0.1922 -0.0144
 1917SOL     OW 7439   4.966   2.258   6.289  0.2889 -0.0301  0.1082
 1917SOL    HW2 7440   4.940   2.340   6.247 -1.0382  0.0008  0.9414
 1917SOL    HW3 7441   4.988   2.199   6.217 -3.5608 -0.5573 -0.8089
 1917SOL    MW4 7442   4.966   2.261   6.274 -0.0657  0.4035  0.7260
 1918SOL     OW 7443   5.158   0.718   3.279  0.2660  0.2072 -0.0796
 1918SOL    HW2 7444   5.148   0.756   3.192 -0.5565  1.1444  0.4098
 1918SOL    HW3 7445   5.119   0.782   3.338  1.1240 -0.2551  1.0270
 1918SOL    MW4 7446   5.152   0.731   3.275  0.6187  0.6965 -0.2233
 1919SOL     OW 7447   0.431   4.064   5.125  0.7364  0.2878 -0.0547
 1919SOL    HW2 7448   0.380   4.036   5.201  0.2427  0.9685 -0.1242
 1919SOL    HW3 7449   0.501   4.118   5.162  0.5767  0.5059 -0.0662
 1919SOL    MW4 7450   0.434   4.067   5.140  0.1475  0.6559  0.7113
 1920SOL     OW 7451   2.058   5.146   0.056 -0.5479 -0.2999 -0.0779
 1920SOL    HW2 7452   2.112   5.091   0.112 -0.9647 -1.7441 -1.0485
 1920SOL    HW3 7453   1.984   5.171   0.111  0.4325  0.6671  0.8674
 1920SOL    MW4 7454   2.056   5.142   0.070 -0.1776 -0.6438 -0.1576
 1921SOL     OW 7455   3.950   2.270   4.984 -0.1962  0.3489 -0.5169
 1921SOL    HW2 7456   3.871   2.321   4.970 -1.6451 -1.4254  0.7833
 1921SOL    HW3 7457   3.961   2.220   4.903 -1.2053 -0.3845 -0.2207
 1921SOL    MW4 7458   3.941   2.270   4.971  0.0239 -0.4234 -0.5169
 1922SOL     OW 7459   6.145   3.750   5.334 -0.5179  0.3024 -0.5383
 1922SOL    HW2 7460   6.060   3.706   5.333 -0.0920 -0.6376  0.6510
 1922SOL    HW3 7461   6.207   3.682   5.306 -0.2386  1.2339 -2.2852
 1922SOL    MW4 7462   6.142   3.735   5.330  0.3265 -0.0389  0.3459
 1923SOL     OW 7463   3.655   3.617   0.356  0.3466  0.3143  0.6148
 1923SOL    HW2 7464   3.610   3.604   0.440  1.5786 -0.0148  1.2511
 1923SOL    HW3 7465   3.596   3.579   0.291 -0.2533 -0.1824  1.4248
 1923SOL    MW4 7466   3.641   3.610   0.359 -0.2538  0.4567  0.1262
 1924SOL     OW 7467   1.582   4.761   0.889  0.3400  0.3163 -0.3505
 1924SOL    HW2 7468   1.633   4.781   0.967  1.1323  0.4476 -0.8861
 1924SOL    HW3 7469   1.569   4.666   0.892 -0.7459  0.4637  0.5855
 1924SOL    MW4 7470   1.587   4.751   0.900 -0.0317  0.1464  0.4045
 1925SOL     OW 7471   3.655   3.098   3.556  0.9122 -0.0965 -0.2301
 1925SOL    HW2 7472   3.663   3.168   3.621 -0.3978 -0.7645  0.6897
 1925SOL    HW3 7473   3.743   3.061   3.550  1.8551  2.1472 -1.3933
 1925SOL    MW4 7474   3.668   3.103   3.564 -0.2958  0.4900 -0.1646
 1926SOL     OW 7475   0.466   4.587   4.555  0.5961  0.5201 -1.0130
 1926SOL    HW2 7476   0.471   4.504   4.508  0.6338  0.2824 -0.6018
 1926SOL    HW3 7477   0.395   4.574   4.618  1.0611  0.5453 -0.4684
 1926SOL    MW4 7478   0.457   4.575   4.557  0.2981 -0.7614  0.5248
 1927SOL     OW 7479   5.377   6.025   2.119  0.0254 -0.2693 -0.5447
 1927SOL    HW2 7480   5.406   6.000   2.207  0.3679 -3.1644 -1.3961
 1927SOL    HW3 7481   5.448   6.080   2.085 -0.4581  1.5395  1.1919
 1927SOL    MW4 7482   5.391   6.029   2.126  0.3906  0.0973 -0.4127
 1928SOL     OW 7483   4.720   3.954   2.237 -0.0911 -0.0734  0.1110
 1928SOL    HW2 7484   4.675   3.908   2.307  0.6171 -1.6912 -0.4602
 1928SOL    HW3 7485   4.779   3.889   2.199  1.9094  1.6330  0.1015
 1928SOL    MW4 7486   4.722   3.940   2.241 -0.5229  0.7958  0.2913
 1929SOL     OW 7487   3.829   1.715   1.919 -0.4088  0.2462  0.3387
 1929SOL    HW2 7488   3.898   1.660   1.880  0.0365  0.1464  1.2549
 1929SOL    HW3 7489   3.773   1.738   1.845 -0.2105 -0.8700 -0.1770
 1929SOL    MW4 7490   3.831   1.711   1.904 -0.1733 -0.0725  0.0552
 1930SOL     OW 7491   0.104   4.840   5.691 -0.4076  0.1022  0.7455
 1930SOL    HW2 7492   0.192   4.863   5.662 -0.6006  0.8790  0.7692
 1930SOL    HW3 7493   0.100   4.745   5.680  0.6586 -0.0370  1.3843
 1930SOL    MW4 7494   0.115   4.830   5.685 -0.2415  0.2004 -0.0585
 1931SOL     OW 7495   5.938   0.090   0.079  0.3910  0.6215 -0.3331
 1931SOL    HW2 7496   5.964   0.050   0.162 -1.5775  0.1324  0.0869
 1931SOL    HW3 7497   5.931   0.183   0.099 -0.9861  0.3989  0.3337
 1931SOL    MW4 7498   5.941   0.097   0.093 -0.1549  0.2237  0.1793
 1932SOL     OW 7499   2.054   4.589   2.159 -0.3786 -0.1478  0.3134
 1932SOL    HW2 7500   1.966   4.572   2.193 -0.4991  0.7422  0.4789
 1932SOL    HW3 7501   2.102   4.625   2.234 -0.0411 -0.1005  0.0781
 1932SOL    MW4 7502   2.049   4.592   2.174  0.4582  0.4114  0.1631
 1933SOL     OW 7503   2.942   4.987   3.590 -0.5537 -0.0964 -0.1529
 1933SOL    HW2 7504   2.997   5.037   3.530  0.8817  0.1820  1.3304
 1933SOL    HW3 7505   2.853   5.016   3.571  0.0711  1.5791 -0.6704
 1933SOL    MW4 7506   2.937   4.997   3.580  0.4152 -0.5016 -0.4355
 1934SOL     OW 7507   2.107   1.439   5.993 -0.1568 -1.0105 -0.5104
 1934SOL    HW2 7508   2.114   1.535   5.988  0.8026 -0.9564  1.1572
 1934SOL    HW3 7509   2.126   1.409   5.904 -1.3335  0.3686 -1.2805
 1934SOL    MW4 7510   2.110   1.448   5.980 -0.0409  0.0409 -0.4924
 1935SOL     OW 7511   0.891   4.818   0.220 -0.0137  0.0238 -0.2011
 1935SOL    HW2 7512   0.835   4.818   0.298  3.7836  0.0158  2.8692
 1935SOL    HW3 7513   0.899   4.725   0.197 -0.6936 -0.0235 -0.2777
 1935SOL    MW4 7514   0.885   4.806   0.227 -0.3594 -0.7132  0.1631
 1936SOL     OW 7515   2.396   0.135   3.242 -0.0813 -0.8910  0.2599
 1936SOL    HW2 7516   2.475   0.172   3.282  0.4512 -0.2914 -1.2417
 1936SOL    HW3 7517   2.338   0.210   3.231  0.0533 -0.9108 -0.6652
 1936SOL    MW4 7518   2.399   0.150   3.246  0.4606 -0.1568  0.2872
 1937SOL     OW 7519   5.475   2.795   1.561 -0.5380 -0.1226  0.2793
 1937SOL    HW2 7520   5.458   2.864   1.498  0.0043 -0.7566 -0.5798
 1937SOL    HW3 7521   5.479   2.715   1.509 -0.9885 -0.7846  1.2368
 1937SOL    MW4 7522   5.473   2.794   1.546  0.3787  0.3632 -0.0905
 1938SOL     OW 7523   5.802   0.575   1.613  0.1941  0.0208 -0.4683
 1938SOL    HW2 7524   5.740   0.551   1.682 -0.9265  0.6898 -1.1952
 1938SOL    HW3 7525   5.867   0.631   1.656 -1.1101  1.3494 -0.1217
 1938SOL    MW4 7526   5.802   0.579   1.628  0.0090  0.1267  0.3318
 1939SOL     OW 7527   2.798   3.558   1.866  0.3747  0.6692 -0.3605
 1939SOL    HW2 7528   2.728   3.597   1.918  1.1715  1.5810  0.0617
 1939SOL    HW3 7529   2.788   3.463   1.879  0.5854  0.8654  1.5423
 1939SOL    MW4 7530   2.788   3.550   1.875 -0.2372 -0.7235  0.1054
 1940SOL     OW 7531   3.551   2.029   3.121  0.6277  0.4814 -0.0583
 1940SOL    HW2 7532   3.530   2.100   3.060 -0.3661 -0.7222 -1.1538
 1940SOL    HW3 7533   3.511   2.057   3.204  0.4962  1.3202 -0.3870
 1940SOL    MW4 7534   3.543   2.042   3.124 -0.5651 -0.2490 -0.4936
 1941SOL     OW 7535   4.909   5.967   4.427  0.3766  0.1429  0.0269
 1941SOL    HW2 7536   4.863   6.001   4.505  1.4037  0.7320  0.3904
 1941SOL    HW3 7537   4.981   6.028   4.414 -1.0452  1.3881 -2.7679
 1941SOL    MW4 7538   4.912   5.980   4.436  0.1352  0.2998  0.2933
 1942SOL     OW 7539   5.759   3.633   0.203 -0.3378  0.3201 -0.0502
 1942SOL    HW2 7540   5.761   3.539   0.186 -0.0022  0.1845  0.6734
 1942SOL    HW3 7541   5.666   3.656   0.206 -0.4141  0.1948 -1.1348
 1942SOL    MW4 7542   5.747   3.624   0.201 -0.3986 -0.0130  0.5947
 1943SOL     OW 7543   5.083   2.322   4.528 -0.3299 -0.1720 -0.2406
 1943SOL    HW2 7544   5.143   2.259   4.568  0.8915  3.5312  4.9102
 1943SOL    HW3 7545   4.999   2.308   4.573 -0.3593  0.9502  0.1101
 1943SOL    MW4 7546   5.080   2.312   4.539 -0.0530 -0.5612 -0.2405
 1944SOL     OW 7547   5.387   2.673   2.067  0.0462  0.1153 -0.0401
 1944SOL    HW2 7548   5.483   2.676   2.065  0.0434  1.4816  0.8774
 1944SOL    HW3 7549   5.360   2.750   2.017 -0.6205 -1.0005 -1.4687
 1944SOL    MW4 7550   5.396   2.684   2.060 -0.1292  0.1668 -0.1050
 1945SOL     OW 7551   2.471   2.614   5.603  0.1611  0.5601 -0.0840
 1945SOL    HW2 7552   2.410   2.546   5.572  1.0229 -0.6460  0.7445
 1945SOL    HW3 7553   2.428   2.650   5.681  1.1210 -1.3922  1.4438
 1945SOL    MW4 7554   2.457   2.609   5.609  0.8628  0.7682 -0.5484
 1946SOL     OW 7555   1.378   0.369   4.330  0.1542 -0.6471 -0.0687
 1946SOL    HW2 7556   1.286   0.395   4.324 -0.2320 -1.9870 -0.3742
 1946SOL    HW3 7557   1.406   0.355   4.239  0.0580 -2.1472  0.1076
 1946SOL    MW4 7558   1.370   0.370   4.317 -0.4145  0.0257  0.1966
 1947SOL     OW 7559   0.810   6.142   4.490  0.0749  0.1625  0.0472
 1947SOL    HW2 7560   0.830   6.231   4.520 -0.4709  0.0580  0.7476
 1947SOL    HW3 7561   0.715   6.137   4.493  0.1486 -1.2347  2.4273
 1947SOL    MW4 7562   0.800   6.153   4.494 -0.2694 -0.1602 -0.2043
 1948SOL     OW 7563   1.490   1.780   0.347  0.6155  0.1800 -0.9166
 1948SOL    HW2 7564   1.581   1.800   0.323  1.2006  0.2303  1.1687
 1948SOL    HW3 7565   1.438   1.842   0.296  1.9272  1.9236 -0.2363
 1948SOL    MW4 7566   1.495   1.791   0.337 -0.0450 -0.1128  0.1509
 1949SOL     OW 7567   4.289   5.536   2.977  0.0663 -0.2245 -0.3248
 1949SOL    HW2 7568   4.351   5.546   2.905 -1.1650 -1.5411 -1.6381
 1949SOL    HW3 7569   4.343   5.526   3.055  1.4490  0.3229 -1.1841
 1949SOL    MW4 7570   4.304   5.536   2.978  0.0944  0.0453 -0.3419
 1950SOL     OW 7571   5.167   4.148   6.158  0.3069  0.1662  0.1958
 1950SOL    HW2 7572   5.237   4.100   6.202  1.3678 -0.1236 -1.6987
 1950SOL    HW3 7573   5.212   4.207   6.098 -0.9777 -1.8113 -2.9650
 1950SOL    MW4 7574   5.182   4.149   6.156 -0.4520  0.1555  0.3836
 1951SOL     OW 7575   4.055   4.182   1.527 -0.0723  0.2415 -0.3591
 1951SOL    HW2 7576   3.978   4.125   1.536 -0.1859  0.3341 -0.7486
 1951SOL    HW3 7577   4.047   4.243   1.601 -0.4093  0.2945 -0.4391
 1951SOL    MW4 7578   4.044   4.183   1.538  0.0150  0.7061 -0.0323
 1952SOL     OW 7579   4.826   5.899   5.291  0.4656 -0.3633 -0.7557
 1952SOL    HW2 7580   4.861   5.976   5.335 -1.0315 -0.1392  0.1264
 1952SOL    HW3 7581   4.886   5.883   5.219  1.3274  1.0666 -0.3962
 1952SOL    MW4 7582   4.838   5.907   5.287 -0.1444  0.1945  0.2285
 1953SOL     OW 7583   3.420   1.919   0.206 -0.2552 -0.0365  0.5026
 1953SOL    HW2 7584   3.464   1.839   0.176 -0.0841  0.1336  0.3036
 1953SOL    HW3 7585   3.454   1.932   0.295  1.4663  1.0807 -0.2790
 1953SOL    MW4 7586   3.431   1.910   0.214  0.3977 -0.1866 -0.1779
 1954SOL     OW 7587   2.897   1.630   0.487 -0.0274 -0.0188  0.7282
 1954SOL    HW2 7588   2.898   1.578   0.406 -2.6394  0.1520  0.5094
 1954SOL    HW3 7589   2.928   1.570   0.554 -1.6077 -1.4616  0.2335
 1954SOL    MW4 7590   2.902   1.615   0.485 -0.0037  0.2485 -0.4778
 1955SOL     OW 7591   1.584   5.417   3.014  0.3937 -0.0458  0.4417
 1955SOL    HW2 7592   1.596   5.397   2.921  2.7342  0.0762  0.6626
 1955SOL    HW3 7593   1.566   5.511   3.016 -0.2040 -0.1477  0.0869
 1955SOL    MW4 7594   1.583   5.427   3.002 -0.1865 -0.4067  0.7555
 1956SOL     OW 7595   0.329   4.444   2.899  1.0189 -0.5712  0.5780
 1956SOL    HW2 7596   0.361   4.425   2.811  2.4502 -0.3689  1.0320
 1956SOL    HW3 7597   0.325   4.539   2.903 -0.1429 -0.5893  0.3828
 1956SOL    MW4 7598   0.333   4.454   2.888 -0.3609  0.5596  0.1966
 1957SOL     OW 7599   5.628   0.624   6.213 -0.2354 -0.0689 -0.0073
 1957SOL    HW2 7600   5.599   0.713   6.192 -0.4772 -0.5795 -1.9726
 1957SOL    HW3 7601   5.547   0.574   6.222 -0.1843  0.1369  2.5953
 1957SOL    MW4 7602   5.613   0.629   6.212 -0.0497  0.6070  0.1094
 1958SOL     OW 7603   3.436   5.236   2.923 -0.2735  0.4445 -0.2472
 1958SOL    HW2 7604   3.363   5.178   2.902  0.3584 -0.2950 -0.4291
 1958SOL    HW3 7605   3.506   5.209   2.863  0.1430  1.1579 -0.0887
 1958SOL    MW4 7606   3.435   5.225   2.912 -0.0944  0.2542 -0.2634
 1959SOL     OW 7607   6.170   5.905   0.020 -0.3318 -0.0370 -0.3837
 1959SOL    HW2 7608   6.135   5.824   0.056 -0.3918 -0.3919 -1.2111
 1959SOL    HW3 7609   6.223   5.877  -0.054  0.8926  0.5722  0.2399
 1959SOL    MW4 7610   6.172   5.891   0.015  0.0189 -0.1250  0.2981
 1960SOL     OW 7611   4.686   2.374   5.953  0.4192 -0.2971 -0.2155
 1960SOL    HW2 7612   4.761   2.321   5.924  1.1522  0.0363  1.0004
 1960SOL    HW3 7613   4.682   2.445   5.889 -0.1143 -1.3974 -1.4354
 1960SOL    MW4 7614   4.696   2.376   5.941  0.1834 -0.5899  0.1659
 1961SOL     OW 7615   6.174   0.215   3.788  0.4077  0.0300  0.4455
 1961SOL    HW2 7616   6.202   0.131   3.750  1.8995  0.4827  0.5006
 1961SOL    HW3 7617   6.251   0.271   3.783 -0.4534  1.2893  0.7823
 1961SOL    MW4 7618   6.188   0.211   3.782  0.1366 -0.2310  0.3600
 1962SOL     OW 7619   3.336   2.238   4.431 -0.4629 -0.4166  0.4728
 1962SOL    HW2 7620   3.396   2.312   4.423 -1.0659 -0.1075 -2.6137
 1962SOL    HW3 7621   3.386   2.171   4.477  1.0086  0.9826  1.0273
 1962SOL    MW4 7622   3.350   2.239   4.436  0.0581  0.0370 -0.1412
 1963SOL     OW 7623   3.015   0.688   6.077  0.6922  0.1716  0.6316
 1963SOL    HW2 7624   3.083   0.711   6.013  0.2113 -1.7520 -0.6583
 1963SOL    HW3 7625   2.934   0.722   6.039  0.4235 -0.8608  0.2386
 1963SOL    MW4 7626   3.013   0.696   6.064  0.6591  0.0110  0.3833
 1964SOL     OW 7627   3.302   5.055   6.284 -0.0824 -0.2412  0.3080
 1964SOL    HW2 7628   3.395   5.075   6.275  0.1366 -0.6663  1.4669
 1964SOL    HW3 7629   3.274   5.103   6.363 -0.9300  0.1636 -0.2226
 1964SOL    MW4 7630   3.310   5.064   6.293  0.0003  0.5031 -0.5528
 1965SOL     OW 7631   6.057   4.077   6.042  0.0437 -0.5757 -0.3505
 1965SOL    HW2 7632   6.075   4.150   6.102  0.1246  1.3065 -2.5487
 1965SOL    HW3 7633   6.112   4.006   6.074  1.2447  0.8416  0.9032
 1965SOL    MW4 7634   6.066   4.077   6.054  0.2691  0.2635  0.6377
 1966SOL     OW 7635   2.905   3.445   3.296 -0.4694  0.4968 -0.3699
 1966SOL    HW2 7636   2.816   3.471   3.321 -0.6998 -1.7512  1.4884
 1966SOL    HW3 7637   2.961   3.490   3.359 -0.5351 -0.0895  0.1228
 1966SOL    MW4 7638   2.900   3.454   3.308 -0.2812  0.1853  0.4939
 1967SOL     OW 7639   2.892   6.001   1.967 -0.2720  0.8743 -0.2024
 1967SOL    HW2 7640   2.897   5.909   1.994  2.2513  0.2709 -2.2791
 1967SOL    HW3 7641   2.864   5.997   1.875  0.5437  2.1136 -0.5244
 1967SOL    MW4 7642   2.889   5.989   1.958 -0.4486 -0.1517 -0.0520
 1968SOL     OW 7643   5.893   2.939   4.164 -0.2676 -0.1416 -0.4263
 1968SOL    HW2 7644   5.911   2.874   4.097 -0.5345 -1.2379  0.5425
 1968SOL    HW3 7645   5.972   2.940   4.218  0.1980  1.1856 -1.0818
 1968SOL    MW4 7646   5.906   2.931   4.162  0.4840  0.4478  0.4527
 1969SOL     OW 7647   4.521   1.419   0.012  0.3548  0.5455  0.3391
 1969SOL    HW2 7648   4.472   1.340   0.034 -0.2526  0.7510 -0.2518
 1969SOL    HW3 7649   4.474   1.457  -0.062  0.8610  1.2592  0.3717
 1969SOL    MW4 7650   4.509   1.414   0.005 -0.1771  0.0481  0.1188
 1970SOL     OW 7651   1.969   3.297   3.220 -0.2073 -0.1715 -0.6012
 1970SOL    HW2 7652   2.010   3.227   3.270  2.4835  0.5145 -1.6654
 1970SOL    HW3 7653   2.032   3.369   3.223 -1.5437  1.1384 -1.9936
 1970SOL    MW4 7654   1.983   3.297   3.227 -0.6624 -0.6355  0.4735
 1971SOL     OW 7655   1.170   1.506   4.381  0.1868 -0.0503 -0.1252
 1971SOL    HW2 7656   1.145   1.464   4.299 -3.3259 -0.5912  1.0620
 1971SOL    HW3 7657   1.129   1.593   4.377 -0.4489 -0.2579  1.2189
 1971SOL    MW4 7658   1.162   1.512   4.370  0.3178  0.6416  0.5339
 1972SOL     OW 7659   3.309   0.481   1.475  0.2690  0.3362  0.1372
 1972SOL    HW2 7660   3.311   0.395   1.435  1.5112  0.1105  0.6487
 1972SOL    HW3 7661   3.382   0.529   1.435  0.3562  0.7305  0.7486
 1972SOL    MW4 7662   3.319   0.476   1.465  0.1897 -0.4747 -0.9295
 1973SOL     OW 7663   0.965   3.811   6.056  0.1271  0.4611  0.6970
 1973SOL    HW2 7664   0.910   3.888   6.041 -1.5809 -0.8777 -0.2360
 1973SOL    HW3 7665   0.951   3.756   5.979  0.6695 -1.1524  1.6952
 1973SOL    MW4 7666   0.956   3.814   6.044 -0.6214 -0.5153 -0.6894
 1974SOL     OW 7667   4.331   0.997   2.402  0.5084 -0.1633 -0.2545
 1974SOL    HW2 7668   4.416   1.043   2.406  0.2339  0.2877  1.2772
 1974SOL    HW3 7669   4.331   0.955   2.317  2.9772 -1.5052  0.3024
 1974SOL    MW4 7670   4.342   0.998   2.392  0.0871  0.4145 -0.2904
 1975SOL     OW 7671   4.897   0.635   3.030  0.0263  0.0063  0.3635
 1975SOL    HW2 7672   4.867   0.634   3.121  3.8378  0.4027  1.8608
 1975SOL    HW3 7673   4.897   0.543   3.003 -1.2097 -0.1094  0.7323
 1975SOL    MW4 7674   4.893   0.623   3.038  0.0839  0.2017 -0.5532
 1976SOL     OW 7675   1.666   6.095   4.912  0.1113  0.1811 -0.3441
 1976SOL    HW2 7676   1.696   6.028   4.973 -0.5496  0.0636 -0.1391
 1976SOL    HW3 7677   1.608   6.151   4.965 -1.1702 -0.4268 -1.0517
 1976SOL    MW4 7678   1.662   6.094   4.927 -0.1854 -1.0040  0.1613
 1977SOL     OW 7679   2.000   3.930   2.615  0.1911 -0.0340  0.6526
 1977SOL    HW2 7680   2.073   3.870   2.629  0.5176  0.2471  0.1935
 1977SOL    HW3 7681   1.994   3.939   2.520  1.1144  1.8019  0.7158
 1977SOL    MW4 7682   2.009   3.923   2.605  0.1568 -0.4031  0.0373
 1978SOL     OW 7683   2.502   4.371   0.994 -0.7002 -0.6501  0.3583
 1978SOL    HW2 7684   2.547   4.345   0.913 -1.7833 -1.9987  0.1503
 1978SOL    HW3 7685   2.568   4.420   1.043  0.6205 -1.5273 -0.4682
 1978SOL    MW4 7686   2.517   4.374   0.990  0.3895  0.0328  0.3803
 1979SOL     OW 7687   1.344   4.481   6.359 -0.2472 -0.3948  0.2389
 1979SOL    HW2 7688   1.290   4.542   6.410  0.0865 -0.9184  1.2520
 1979SOL    HW3 7689   1.280   4.421   6.320 -0.7127  1.3902 -1.9667
 1979SOL    MW4 7690   1.328   4.481   6.361 -0.3439 -0.0688  0.0670
 1980SOL     OW 7691   4.831   0.505   1.717  0.3722  0.4720 -0.2965
 1980SOL    HW2 7692   4.869   0.420   1.738  0.1475  0.1269 -1.2269
 1980SOL    HW3 7693   4.903   0.567   1.726  0.4064  0.2783  0.9360
 1980SOL    MW4 7694   4.846   0.502   1.721 -0.2928  0.8438 -0.2454
 1981SOL     OW 7695   4.008   1.589   5.125  0.1691 -0.1890 -0.4887
 1981SOL    HW2 7696   4.033   1.678   5.099  2.1961 -0.3083  0.8443
 1981SOL    HW3 7697   4.054   1.533   5.062  0.0097 -0.3417 -0.4690
 1981SOL    MW4 7698   4.017   1.594   5.113 -0.6475 -0.5369  0.1683
 1982SOL     OW 7699   5.926   1.402   6.072 -0.0485  0.1454 -0.6842
 1982SOL    HW2 7700   5.908   1.312   6.044  1.0941 -0.7010  1.1001
 1982SOL    HW3 7701   5.998   1.394   6.134 -0.5856  2.1929  0.3069
 1982SOL    MW4 7702   5.933   1.389   6.077 -0.6485  0.2086  0.0252
 1983SOL     OW 7703   6.360   5.207   5.572  0.2145  0.5093  0.1340
 1983SOL    HW2 7704   6.362   5.253   5.488 -0.9211  1.5748  0.6706
 1983SOL    HW3 7705   6.278   5.234   5.613  0.9756  0.4100  1.8111
 1983SOL    MW4 7706   6.350   5.217   5.566 -0.0049 -0.2555  0.2498
 1984SOL     OW 7707   1.137   5.436   6.100  0.7007 -0.4457 -0.1787
 1984SOL    HW2 7708   1.210   5.418   6.159  0.6355  1.1199  0.4414
 1984SOL    HW3 7709   1.155   5.523   6.066 -0.8647 -0.0356 -0.0176
 1984SOL    MW4 7710   1.149   5.445   6.104 -0.5545  0.3298  0.8058
 1985SOL     OW 7711   4.023   1.889   4.795  0.0919  0.3200 -0.3001
 1985SOL    HW2 7712   4.097   1.942   4.766 -0.7698  0.5991 -2.1032
 1985SOL    HW3 7713   4.022   1.814   4.736  0.1555 -0.7901  1.0389
 1985SOL    MW4 7714   4.033   1.886   4.784  0.4750 -0.2116  0.0369
 1986SOL     OW 7715   1.018   1.945   3.416 -0.0984 -0.2590 -0.2677
 1986SOL    HW2 7716   0.954   1.966   3.348  0.1904 -0.4725 -0.6056
 1986SOL    HW3 7717   1.077   2.020   3.417 -0.2752 -0.1205 -0.0443
 1986SOL    MW4 7718   1.017   1.958   3.407  0.0280  0.0871 -0.6084
 1987SOL     OW 7719   5.577   5.686   0.312 -0.4473 -0.5054  0.3726
 1987SOL    HW2 7720   5.568   5.592   0.301 -0.9150 -0.3996 -0.2575
 1987SOL    HW3 7721   5.531   5.723   0.236  0.4543  0.2135  0.1565
 1987SOL    MW4 7722   5.569   5.679   0.300  0.0233 -0.0565  0.2324
 1988SOL     OW 7723   5.587   1.868   5.882 -0.3054 -0.0019  0.4161
 1988SOL    HW2 7724   5.676   1.872   5.845 -0.4900  0.6874  0.0422
 1988SOL    HW3 7725   5.568   1.958   5.908 -0.4756 -0.3389  1.5188
 1988SOL    MW4 7726   5.596   1.880   5.881  0.3539  0.0297 -0.4269
 1989SOL     OW 7727   4.696   2.166   4.877 -0.0562 -0.0263  0.2093
 1989SOL    HW2 7728   4.766   2.120   4.923 -0.9014 -1.0665  0.5015
 1989SOL    HW3 7729   4.670   2.107   4.806 -0.7537  0.2590  0.2127
 1989SOL    MW4 7730   4.702   2.152   4.874 -0.4359  0.0479  0.5961
 1990SOL     OW 7731   6.120   4.772   0.130  0.7212 -0.2267 -0.3585
 1990SOL    HW2 7732   6.191   4.798   0.072  0.9860 -1.0930 -0.4351
 1990SOL    HW3 7733   6.140   4.682   0.155 -0.5877 -0.6526 -0.7564
 1990SOL    MW4 7734   6.132   4.764   0.126 -0.0004  0.4702 -0.3361
 1991SOL     OW 7735   4.779   4.570   5.469 -0.1872 -0.2140 -0.3815
 1991SOL    HW2 7736   4.788   4.514   5.546  3.4237  0.3839 -0.2166
 1991SOL    HW3 7737   4.700   4.536   5.425 -0.2430 -3.0196  1.5779
 1991SOL    MW4 7738   4.769   4.558   5.473  0.2036  0.0205  0.0012
 1992SOL     OW 7739   3.042   0.171   1.228 -0.0076  0.1774  0.5452
 1992SOL    HW2 7740   2.960   0.131   1.257 -0.8420 -0.3891 -2.2992
 1992SOL    HW3 7741   3.020   0.263   1.215 -0.2003  0.0321 -0.1859
 1992SOL    MW4 7742   3.028   0.178   1.230  0.4448  0.0521 -0.2879
 1993SOL     OW 7743   3.477   0.173   4.611 -0.2090  0.0395 -0.8333
 1993SOL    HW2 7744   3.425   0.099   4.642 -2.1411  1.3890 -0.7100
 1993SOL    HW3 7745   3.516   0.210   4.690 -0.3375 -0.0414 -0.7312
 1993SOL    MW4 7746   3.475   0.168   4.625  0.5219 -0.3031  0.4399
 1994SOL     OW 7747   4.614   2.777   6.084 -0.4040 -0.3682  0.4543
 1994SOL    HW2 7748   4.669   2.855   6.081  0.1482 -0.7092  1.4593
 1994SOL    HW3 7749   4.535   2.805   6.130 -0.1997 -0.3954  0.8276
 1994SOL    MW4 7750   4.611   2.791   6.089 -0.5300 -0.5979  0.5539
 1995SOL     OW 7751   2.764   0.819   5.996  0.2906  0.9341 -0.5234
 1995SOL    HW2 7752   2.830   0.855   5.937  1.0692  0.9076  0.3154
 1995SOL    HW3 7753   2.745   0.889   6.057  1.1350  0.2518  0.5505
 1995SOL    MW4 7754   2.770   0.833   5.996  0.2832 -0.5568 -0.3928
 1996SOL     OW 7755   3.805   3.502   4.662  0.3666  0.3912  0.5860
 1996SOL    HW2 7756   3.862   3.482   4.737 -0.2872  0.2648  1.0506
 1996SOL    HW3 7757   3.852   3.571   4.615  0.8549  0.3672  1.0277
 1996SOL    MW4 7758   3.819   3.508   4.666 -0.2635  0.5587 -0.0982
 1997SOL     OW 7759   2.259   5.883   0.238  0.3101  0.4263 -0.3105
 1997SOL    HW2 7760   2.211   5.861   0.158  1.2649  0.9237 -1.0318
 1997SOL    HW3 7761   2.193   5.926   0.294 -0.3711  0.0506 -0.8053
 1997SOL    MW4 7762   2.244   5.886   0.235 -0.1059  0.4061 -0.4256
 1998SOL     OW 7763   6.001   3.598   0.922 -0.3379 -0.4757 -0.4943
 1998SOL    HW2 7764   5.991   3.521   0.978  0.1622  0.3737  0.8163
 1998SOL    HW3 7765   5.927   3.594   0.861 -0.6898 -1.6237 -0.0109
 1998SOL    MW4 7766   5.990   3.588   0.921  0.5827 -0.0475 -0.2633
 1999SOL     OW 7767   1.929   1.435   2.154 -0.2182  0.6794  0.5684
 1999SOL    HW2 7768   1.880   1.448   2.235  1.7633  2.5607  1.5939
 1999SOL    HW3 7769   1.877   1.478   2.087 -1.4781 -0.1517  0.9917
 1999SOL    MW4 7770   1.916   1.442   2.156  0.2249  0.1806 -0.3550
 2000SOL     OW 7771   5.458   4.501   1.862 -0.3835 -0.0374  0.1215
 2000SOL    HW2 7772   5.449   4.578   1.918 -0.1295  0.2432 -0.2201
 2000SOL    HW3 7773   5.546   4.508   1.825 -0.2488 -0.6466  0.3164
 2000SOL    MW4 7774   5.468   4.512   1.864 -0.0302 -0.0910 -0.0221
 2001SOL     OW 7775   3.443   3.075   1.441 -0.4844 -0.3453  0.2406
 2001SOL    HW2 7776   3.387   3.032   1.376 -0.5600 -1.9718  1.3113
 2001SOL    HW3 7777   3.527   3.085   1.397 -0.3199 -2.0906  0.0721
 2001SOL    MW4 7778   3.446   3.071   1.427  0.0182 -0.1530 -0.1394
 2002SOL     OW 7779   6.245   5.037   5.854  0.5114 -0.1745 -0.3444
 2002SOL    HW2 7780   6.220   4.949   5.881  2.7077 -0.3565  1.2998
 2002SOL    HW3 7781   6.313   5.024   5.789 -1.0697  0.3534 -2.2080
 2002SOL    MW4 7782   6.250   5.024   5.849  0.1858 -0.3340  0.2851
 2003SOL     OW 7783   1.758   3.407   2.797  0.2478  0.0573  0.2656
 2003SOL    HW2 7784   1.765   3.502   2.800  1.1839  0.0253 -0.3528
 2003SOL    HW3 7785   1.793   3.383   2.711 -2.7362 -0.6607 -0.8723
 2003SOL    MW4 7786   1.764   3.416   2.786 -0.2625 -1.1766 -0.0830
 2004SOL     OW 7787   6.377   0.524   4.411  0.8673  0.5715 -0.5860
 2004SOL    HW2 7788   6.419   0.442   4.387  1.0683 -0.1057  1.8019
 2004SOL    HW3 7789   6.444   0.591   4.395  1.0104  0.1691 -1.7164
 2004SOL    MW4 7790   6.392   0.522   4.406  0.0348 -0.8022 -0.3150
 2005SOL     OW 7791   5.254   4.886   4.746 -0.1252  0.1093  0.0612
 2005SOL    HW2 7792   5.181   4.828   4.767  0.1757 -0.3165 -0.0461
 2005SOL    HW3 7793   5.308   4.835   4.685 -0.5105  0.9883 -1.0428
 2005SOL    MW4 7794   5.252   4.872   4.741  0.1671  0.4947 -0.1141
 2006SOL     OW 7795   5.723   6.361   0.014  0.0587  0.1395  0.1279
 2006SOL    HW2 7796   5.787   6.431   0.023 -0.4631  0.8382 -1.3403
 2006SOL    HW3 7797   5.749   6.315  -0.067  1.2691 -2.3363  1.7803
 2006SOL    MW4 7798   5.735   6.364   0.004  0.0583 -0.0563  0.2853
 2007SOL     OW 7799   4.656   2.990   5.482  0.3758  0.0019 -0.6460
 2007SOL    HW2 7800   4.565   2.965   5.503  0.3085  0.6726 -0.1024
 2007SOL    HW3 7801   4.707   2.956   5.556  0.3636  0.9112 -0.2082
 2007SOL    MW4 7802   4.650   2.982   5.495  0.5718 -0.1921 -0.7592
 2008SOL     OW 7803   4.063   2.989   2.433 -0.4004 -0.6375 -0.1096
 2008SOL    HW2 7804   4.002   2.922   2.402  0.2419 -1.3579  0.1432
 2008SOL    HW3 7805   4.050   3.063   2.373 -2.3116 -0.3308  0.6097
 2008SOL    MW4 7806   4.053   2.990   2.421  0.3059 -0.3814  0.3260
 2009SOL     OW 7807   5.017   3.433   5.818  0.2157  0.4726 -0.1070
 2009SOL    HW2 7808   5.105   3.400   5.835  1.3081  2.9374 -0.4355
 2009SOL    HW3 7809   4.980   3.448   5.905  0.2630 -0.2018  0.0329
 2009SOL    MW4 7810   5.023   3.431   5.832  0.6195 -0.0646 -0.3658
 2010SOL     OW 7811   2.550   0.360   2.791  0.5117  0.2676  0.2534
 2010SOL    HW2 7812   2.550   0.455   2.797  0.6229  0.4256 -1.5902
 2010SOL    HW3 7813   2.467   0.339   2.747  0.8388 -0.4212 -0.0512
 2010SOL    MW4 7814   2.539   0.370   2.786  0.3690  0.1502  0.0823
 2011SOL     OW 7815   1.168   2.117   3.889  0.1991  0.1119  0.0039
 2011SOL    HW2 7816   1.098   2.094   3.950  0.6799 -0.5155  0.3439
 2011SOL    HW3 7817   1.233   2.162   3.943  0.2766  0.2530 -0.2055
 2011SOL    MW4 7818   1.168   2.120   3.904 -0.0221 -0.5788  0.1931
 2012SOL     OW 7819   0.998   0.266   0.959 -0.1290 -0.1225  0.2397
 2012SOL    HW2 7820   1.019   0.241   0.869  2.3099 -0.8426  0.9089
 2012SOL    HW3 7821   1.055   0.340   0.978 -0.8549  0.2425  1.0850
 2012SOL    MW4 7822   1.009   0.272   0.950 -0.4416 -0.2085 -0.0060
 2013SOL     OW 7823   1.432   3.564   1.981 -0.7517  0.4556  0.2791
 2013SOL    HW2 7824   1.356   3.587   2.035  1.0067  2.0448  2.2496
 2013SOL    HW3 7825   1.485   3.644   1.980  1.5946 -1.0172  0.1967
 2013SOL    MW4 7826   1.429   3.578   1.988  0.3138  0.2182  0.1033
 2014SOL     OW 7827   0.039   2.435   4.024 -0.2950 -0.1341  0.0618
 2014SOL    HW2 7828  -0.020   2.508   4.003  0.5125  0.8522  1.1314
 2014SOL    HW3 7829   0.053   2.391   3.941 -0.2327  1.3662 -0.7545
 2014SOL    MW4 7830   0.033   2.439   4.011 -0.2461  0.3319  0.0165
 2015SOL     OW 7831   1.867   6.134   6.091 -0.7233 -0.2626 -0.4389
 2015SOL    HW2 7832   1.790   6.176   6.130  0.4213  0.9045  0.6558
 2015SOL    HW3 7833   1.914   6.097   6.166 -0.4451 -1.4093 -1.1452
 2015SOL    MW4 7834   1.863   6.134   6.106 -0.3550 -0.0042 -0.2626
 2016SOL     OW 7835   3.248   3.743   2.492  0.5429  0.1249  0.3882
 2016SOL    HW2 7836   3.181   3.732   2.559  0.3465  0.3463  0.2259
 2016SOL    HW3 7837   3.225   3.824   2.447 -0.0451 -0.6700 -0.7784
 2016SOL    MW4 7838   3.236   3.752   2.495 -0.0974 -0.1703 -0.5078
 2017SOL     OW 7839   4.762   2.370   4.019  0.0773 -0.0171 -0.4912
 2017SOL    HW2 7840   4.823   2.313   3.972  0.6553 -0.7757  1.1130
 2017SOL    HW3 7841   4.678   2.325   4.015  0.1857 -0.2156 -0.5350
 2017SOL    MW4 7842   4.759   2.357   4.012 -0.2645  0.3168 -0.0927
 2018SOL     OW 7843   1.139   0.904   2.306  0.1833  0.2469 -0.4668
 2018SOL    HW2 7844   1.099   0.824   2.273  0.3943 -1.0306  2.0950
 2018SOL    HW3 7845   1.083   0.930   2.379  0.2673  2.3392 -1.0836
 2018SOL    MW4 7846   1.127   0.897   2.311 -0.5994 -0.7311  0.5363
 2019SOL     OW 7847   1.428   4.771   1.273  0.1494  0.4837 -0.0105
 2019SOL    HW2 7848   1.380   4.764   1.356 -1.3177  0.3104 -0.8508
 2019SOL    HW3 7849   1.404   4.857   1.239  2.2985  1.4218  0.6302
 2019SOL    MW4 7850   1.419   4.781   1.280 -0.2819  0.1812  0.6038
 2020SOL     OW 7851   4.827   2.087   3.032 -0.0303 -0.1196  0.0251
 2020SOL    HW2 7852   4.862   2.052   3.114  0.8926 -1.8867 -1.0668
 2020SOL    HW3 7853   4.734   2.063   3.033 -0.3705  1.1367  1.1651
 2020SOL    MW4 7854   4.819   2.079   3.043  0.2470 -0.2069  0.1912
 2021SOL     OW 7855   6.081   2.670   6.417  0.3151 -0.5890 -0.2956
 2021SOL    HW2 7856   6.100   2.745   6.473 -0.1502  0.6948 -1.7935
 2021SOL    HW3 7857   5.997   2.636   6.450  0.9960 -1.1032  1.0022
 2021SOL    MW4 7858   6.072   2.675   6.429 -0.0929 -0.7099  1.0189
 2022SOL     OW 7859   1.531   4.127   3.135  0.3420 -0.2515 -0.0443
 2022SOL    HW2 7860   1.595   4.059   3.156  0.7340 -0.5432 -2.0184
 2022SOL    HW3 7861   1.447   4.082   3.132  0.5161 -0.5317 -0.7454
 2022SOL    MW4 7862   1.529   4.112   3.138 -0.1939  0.5109 -0.1069
 2023SOL     OW 7863   3.170   3.550   2.849  0.1324  0.1491  0.2066
 2023SOL    HW2 7864   3.107   3.555   2.921  1.4100 -0.0501  1.3709
 2023SOL    HW3 7865   3.228   3.478   2.872  0.7636  0.2887 -0.8694
 2023SOL    MW4 7866   3.170   3.541   2.861  0.7412  0.2504  0.9875
 2024SOL     OW 7867   5.630   6.093   4.992  0.4409 -0.1708  0.4737
 2024SOL    HW2 7868   5.723   6.082   5.015  0.6644  0.2848 -0.1824
 2024SOL    HW3 7869   5.622   6.054   4.905  0.1308  0.2494  0.3112
 2024SOL    MW4 7870   5.642   6.086   4.984 -0.3337  0.0733  0.1321
 2025SOL     OW 7871   6.129   2.835   3.582  0.0249 -0.5899 -0.2033
 2025SOL    HW2 7872   6.136   2.918   3.534 -2.0718 -0.7223 -0.8365
 2025SOL    HW3 7873   6.141   2.859   3.673  0.2299  0.2867 -0.4529
 2025SOL    MW4 7874   6.131   2.849   3.587  0.1090 -0.0086  0.0456
 2026SOL     OW 7875   4.889   4.932   0.136  0.0029 -0.7504  0.1005
 2026SOL    HW2 7876   4.928   4.871   0.073  0.6063 -0.5583  0.2864
 2026SOL    HW3 7877   4.795   4.916   0.129  0.0582 -0.7300 -0.8630
 2026SOL    MW4 7878   4.882   4.922   0.127 -0.3197 -0.4307 -0.3444
 2027SOL     OW 7879   1.378   2.745   2.342  0.5668  0.1478 -0.0851
 2027SOL    HW2 7880   1.346   2.682   2.406  0.8261  1.2691  1.1713
 2027SOL    HW3 7881   1.356   2.831   2.378 -1.4674  0.8256 -2.6130
 2027SOL    MW4 7882   1.371   2.748   2.355 -0.2953  0.4413  0.2858
 2028SOL     OW 7883   4.589   2.453   3.571  0.5463 -0.8153 -0.0062
 2028SOL    HW2 7884   4.616   2.468   3.662 -0.1610 -1.1402  0.2686
 2028SOL    HW3 7885   4.670   2.454   3.522  0.7077  2.5727  0.1250
 2028SOL    MW4 7886   4.603   2.455   3.577  0.2447 -0.2612 -0.2549
 2029SOL     OW 7887   0.995   0.907   4.160 -0.5905  0.0052 -0.1812
 2029SOL    HW2 7888   0.901   0.919   4.149 -1.6364  0.0032  5.7043
 2029SOL    HW3 7889   1.028   0.993   4.185 -0.3541 -0.9473  3.3450
 2029SOL    MW4 7890   0.987   0.920   4.162 -0.9823 -0.0980 -0.3595
 2030SOL     OW 7891   1.685   4.699   5.457 -0.0884  0.1134  0.9457
 2030SOL    HW2 7892   1.634   4.749   5.520 -1.5811  2.3570 -1.7880
 2030SOL    HW3 7893   1.751   4.760   5.425 -1.1855  0.0839 -1.6189
 2030SOL    MW4 7894   1.687   4.714   5.461  0.1394  0.4283 -0.3337
 2031SOL     OW 7895   3.427   4.502   2.033  0.1734 -0.3320  0.0872
 2031SOL    HW2 7896   3.338   4.470   2.049 -0.0824  0.6413  0.7308
 2031SOL    HW3 7897   3.484   4.431   2.063 -0.3709 -1.3667 -1.2427
 2031SOL    MW4 7898   3.423   4.489   2.039 -0.4287 -0.8245  0.1038
 2032SOL     OW 7899   5.182   0.032   2.912 -0.2411  0.9535 -0.1756
 2032SOL    HW2 7900   5.139   0.083   2.844  0.1378 -0.1369 -1.2578
 2032SOL    HW3 7901   5.168  -0.059   2.887 -0.7712  0.5021  1.6443
 2032SOL    MW4 7902   5.175   0.027   2.900 -0.2391 -0.5586  0.1583
 2033SOL     OW 7903   2.159   4.869   3.706 -0.5450 -0.5097 -0.1021
 2033SOL    HW2 7904   2.189   4.937   3.646  1.3529 -0.2200  1.1026
 2033SOL    HW3 7905   2.140   4.916   3.787 -0.7535 -1.2095  0.2608
 2033SOL    MW4 7906   2.160   4.884   3.709  0.0386  0.6598 -0.2113
 2034SOL     OW 7907   0.654   5.416   5.026  0.4045 -0.2070  0.6292
 2034SOL    HW2 7908   0.668   5.502   5.063  1.5134 -0.2265  0.2818
 2034SOL    HW3 7909   0.689   5.422   4.937 -0.0319 -0.8523  0.4029
 2034SOL    MW4 7910   0.660   5.428   5.019 -0.1626  0.0857 -1.0523
 2035SOL     OW 7911   5.814   5.269   4.919 -0.9682 -0.4897 -0.1659
 2035SOL    HW2 7912   5.882   5.332   4.894 -1.0600 -0.1649  0.3848
 2035SOL    HW3 7913   5.743   5.285   4.857 -1.0448  0.0533  0.0518
 2035SOL    MW4 7914   5.814   5.280   4.908 -0.6044 -0.5274 -0.1035
 2036SOL     OW 7915   1.130   2.059   0.129  0.4779 -1.0177  0.1319
 2036SOL    HW2 7916   1.108   2.065   0.222 -1.9208 -2.0393 -0.2740
 2036SOL    HW3 7917   1.124   2.149   0.097  0.4908 -0.7711  0.8143
 2036SOL    MW4 7918   1.126   2.072   0.137 -0.3241 -0.4652 -0.4424
 2037SOL     OW 7919   3.477   1.558   5.971 -0.0496  0.0121 -0.0113
 2037SOL    HW2 7920   3.385   1.573   5.993 -0.1777 -0.4847 -0.2159
 2037SOL    HW3 7921   3.484   1.582   5.879 -0.1594 -0.7712 -0.2231
 2037SOL    MW4 7922   3.466   1.563   5.962 -0.2556  0.2528 -0.3755
 2038SOL     OW 7923   2.978   4.546   0.810 -0.2732 -1.0576  0.9633
 2038SOL    HW2 7924   2.884   4.530   0.808 -0.3499 -0.6048  0.9265
 2038SOL    HW3 7925   3.003   4.554   0.718 -0.7124  1.7596  1.0199
 2038SOL    MW4 7926   2.969   4.545   0.798 -0.2601 -0.3464  0.4610
 2039SOL     OW 7927   5.685   1.193   1.397 -0.3771 -0.0268 -0.0218
 2039SOL    HW2 7928   5.738   1.269   1.420  1.3226 -1.0641 -0.3414
 2039SOL    HW3 7929   5.705   1.128   1.464  2.2614 -1.9923 -2.4320
 2039SOL    MW4 7930   5.695   1.194   1.408 -0.4768 -0.6856  0.1014
 2040SOL     OW 7931   4.270   2.918   4.960 -0.2044 -0.3174  0.6339
 2040SOL    HW2 7932   4.348   2.952   4.916 -0.9849  0.7185 -0.0017
 2040SOL    HW3 7933   4.273   2.824   4.944 -0.4109  0.0001 -1.6307
 2040SOL    MW4 7934   4.281   2.910   4.952 -0.0057  0.2241 -0.2084
 2041SOL     OW 7935   0.703   2.622   6.359 -0.1208 -0.3767  0.2926
 2041SOL    HW2 7936   0.673   2.590   6.445  1.1411  0.1684  0.9579
 2041SOL    HW3 7937   0.717   2.715   6.372 -2.5135  0.3051 -1.2781
 2041SOL    MW4 7938   0.701   2.630   6.372  0.0142 -0.1440 -0.0861
 2042SOL     OW 7939   3.516   6.201   6.268  0.0092  0.2455  0.2845
 2042SOL    HW2 7940   3.457   6.138   6.310  0.7599 -0.0003  0.9862
 2042SOL    HW3 7941   3.601   6.186   6.309  0.2393  1.6274  0.3790
 2042SOL    MW4 7942   3.519   6.191   6.279 -0.2449  0.0233 -0.6121
 2043SOL     OW 7943   3.545   5.820   2.330 -0.5128  0.4265  0.5496
 2043SOL    HW2 7944   3.615   5.797   2.392  1.1689  1.2147 -0.9394
 2043SOL    HW3 7945   3.591   5.836   2.248 -2.7336 -1.5180 -1.2141
 2043SOL    MW4 7946   3.561   5.819   2.327 -0.1061  0.1818 -0.0440
 2044SOL     OW 7947   0.784   0.277   3.839  0.6822 -0.0353  0.0226
 2044SOL    HW2 7948   0.861   0.220   3.844  0.2462 -0.7873 -1.3060
 2044SOL    HW3 7949   0.720   0.236   3.898  0.2047 -1.2453 -1.2674
 2044SOL    MW4 7950   0.786   0.264   3.848 -0.0525  0.2141  0.4442
 2045SOL     OW 7951   5.214   5.336   0.958 -0.3466  0.0947 -0.7663
 2045SOL    HW2 7952   5.123   5.365   0.953  0.2622  2.2872 -0.3054
 2045SOL    HW3 7953   5.259   5.391   0.894  0.9211  0.2303  0.2187
 2045SOL    MW4 7954   5.208   5.347   0.949 -0.3167  0.2784  0.1564
 2046SOL     OW 7955   2.608   6.221   1.343 -0.9088  0.5758  0.0205
 2046SOL    HW2 7956   2.640   6.211   1.433  1.0751 -0.8579 -0.7514
 2046SOL    HW3 7957   2.671   6.171   1.290 -2.3445  0.8929 -2.1071
 2046SOL    MW4 7958   2.621   6.213   1.348 -0.0433  0.5068 -0.5629
 2047SOL     OW 7959   4.009   0.790   1.478 -0.3172  0.3456  0.0220
 2047SOL    HW2 7960   3.994   0.730   1.405  0.0908  1.6771 -1.1782
 2047SOL    HW3 7961   4.077   0.748   1.530 -2.4921 -1.9827  1.2565
 2047SOL    MW4 7962   4.016   0.777   1.475  0.0025 -0.4167 -0.3167
 2048SOL     OW 7963   2.975   4.925   5.774 -0.4341 -0.5857  0.3069
 2048SOL    HW2 7964   2.920   5.000   5.749  0.0076 -0.0980  0.7656
 2048SOL    HW3 7965   2.950   4.856   5.712 -0.8980 -0.0855 -0.0845
 2048SOL    MW4 7966   2.964   4.926   5.762 -0.2617  0.2830 -0.0064
 2049SOL     OW 7967   5.824   3.209   5.176  0.4648 -0.7983  0.4366
 2049SOL    HW2 7968   5.874   3.129   5.161  1.5453 -0.2873  1.2456
 2049SOL    HW3 7969   5.884   3.280   5.155  0.0693 -0.1726  1.3493
 2049SOL    MW4 7970   5.838   3.208   5.171 -0.0270  0.1714  0.1618
 2050SOL     OW 7971   4.213   2.119   5.597 -0.4397  0.1683  0.0270
 2050SOL    HW2 7972   4.146   2.078   5.653  0.8175 -0.4067  1.1739
 2050SOL    HW3 7973   4.294   2.110   5.647  0.6938 -0.0684 -1.7663
 2050SOL    MW4 7974   4.215   2.112   5.611  0.0535  0.3927  0.6138
 2051SOL     OW 7975   0.049   5.856   3.379 -0.4702  0.4265 -0.0583
 2051SOL    HW2 7976   0.033   5.907   3.300 -1.3281 -0.5502 -0.5361
 2051SOL    HW3 7977   0.114   5.791   3.353 -2.2175 -1.2118 -0.5885
 2051SOL    MW4 7978   0.056   5.854   3.365 -0.3413 -0.0202  0.5428
 2052SOL     OW 7979   6.398   5.322   5.290  0.5008 -0.2923 -0.0717
 2052SOL    HW2 7980   6.386   5.398   5.233  0.5165 -1.3308 -1.5194
 2052SOL    HW3 7981   6.466   5.271   5.247  1.4357 -0.5103  1.5743
 2052SOL    MW4 7982   6.405   5.325   5.277 -0.8158 -0.0086  0.2773
 2053SOL     OW 7983   2.225   0.772   0.796 -0.4364 -0.5070 -0.0109
 2053SOL    HW2 7984   2.261   0.701   0.850  0.8639 -0.9166 -1.3524
 2053SOL    HW3 7985   2.261   0.852   0.834  0.0442 -0.7480  0.0525
 2053SOL    MW4 7986   2.234   0.773   0.808 -0.0360  0.1279 -0.2260
 2054SOL     OW 7987   1.986   3.573   2.067  0.1107 -0.2723 -0.0091
 2054SOL    HW2 7988   2.003   3.517   1.990 -0.1890  1.4251 -1.3780
 2054SOL    HW3 7989   1.891   3.567   2.080  0.2731 -1.2964  0.8648
 2054SOL    MW4 7990   1.975   3.565   2.058 -0.2158  0.2560  0.3469
 2055SOL     OW 7991   4.181   5.359   0.675 -0.6617 -0.0602  0.4202
 2055SOL    HW2 7992   4.255   5.416   0.658 -0.7875 -0.1727 -0.5442
 2055SOL    HW3 7993   4.150   5.332   0.588 -1.1133 -0.9287  0.8349
 2055SOL    MW4 7994   4.186   5.363   0.661  0.4065 -0.2728 -0.0939
 2056SOL     OW 7995   0.058   6.341   6.067  0.1467  0.3526 -0.5149
 2056SOL    HW2 7996   0.029   6.403   6.134 -1.8586  0.8960 -1.7933
 2056SOL    HW3 7997   0.065   6.393   5.987  0.5397 -0.6560 -1.1614
 2056SOL    MW4 7998   0.055   6.356   6.065  0.0473  0.7746  0.0725
 2057SOL     OW 7999   3.825   1.090   3.338 -0.2731 -0.4856 -0.3937
 2057SOL    HW2 8000   3.884   1.082   3.263  0.3905  0.9221 -0.0533
 2057SOL    HW3 8001   3.806   1.000   3.363  1.5195 -0.9898 -0.6963
 2057SOL    MW4 8002   3.830   1.077   3.331 -0.2333  0.3284  0.4024
 2058SOL     OW 8003   5.653   4.217   2.489 -0.8139 -0.6153  0.0425
 2058SOL    HW2 8004   5.653   4.312   2.472 -0.0040 -0.4800  0.6971
 2058SOL    HW3 8005   5.561   4.195   2.498 -1.0303  0.0625 -0.3916
 2058SOL    MW4 8006   5.641   4.227   2.488  0.1944  0.3738  0.5386
 2059SOL     OW 8007   0.659   4.131   2.314  0.6608  0.2794 -0.0028
 2059SOL    HW2 8008   0.586   4.117   2.254  0.5154 -0.3160  0.3028
 2059SOL    HW3 8009   0.727   4.172   2.260  1.1853 -1.7944 -1.0313
 2059SOL    MW4 8010   0.658   4.135   2.299 -0.0013 -0.4798  0.4747
 2060SOL     OW 8011   6.424   4.187   5.865 -0.1892 -0.2581  0.4198
 2060SOL    HW2 8012   6.337   4.176   5.827  0.0479  0.4734 -0.3623
 2060SOL    HW3 8013   6.419   4.269   5.914  0.2107  0.0746 -0.0849
 2060SOL    MW4 8014   6.412   4.196   5.866  0.0453  0.4878  0.0030
 2061SOL     OW 8015   4.068   6.212   0.984 -0.3520 -0.1901 -0.0431
 2061SOL    HW2 8016   4.005   6.273   0.944  1.1696  0.0282 -2.2413
 2061SOL    HW3 8017   4.017   6.167   1.052 -2.2379  1.6142 -0.1519
 2061SOL    MW4 8018   4.053   6.215   0.988  0.0213 -0.3165  0.1206
 2062SOL     OW 8019   3.043   2.986   1.615 -0.4647  0.2593 -0.5748
 2062SOL    HW2 8020   3.016   2.957   1.528  0.7240 -0.2747 -0.7882
 2062SOL    HW3 8021   3.119   2.932   1.636 -1.0705 -0.0286  1.0454
 2062SOL    MW4 8022   3.050   2.975   1.607 -0.1842  0.5121 -0.0867
 2063SOL     OW 8023   0.926   4.506   1.270  0.4367 -0.2334 -0.2034
 2063SOL    HW2 8024   0.979   4.434   1.303  0.2762 -0.3203 -0.1363
 2063SOL    HW3 8025   0.863   4.523   1.339  1.5101  1.0723  0.5130
 2063SOL    MW4 8026   0.925   4.499   1.283  0.0323 -0.3561 -0.2431
 2064SOL     OW 8027   0.167   0.291   6.150 -0.3658  0.2608 -0.6256
 2064SOL    HW2 8028   0.130   0.231   6.214 -0.6158  0.8961 -0.1663
 2064SOL    HW3 8029   0.238   0.335   6.196 -0.4914  0.6608 -0.8064
 2064SOL    MW4 8030   0.171   0.289   6.165 -0.3847  0.1435  0.0878
 2065SOL     OW 8031   3.910   1.395   4.718  0.6998  0.1460  0.1994
 2065SOL    HW2 8032   3.853   1.425   4.788  0.5407  0.2118  0.0434
 2065SOL    HW3 8033   3.966   1.470   4.699 -0.2664  0.6582 -0.7754
 2065SOL    MW4 8034   3.910   1.409   4.725  0.1778  0.0404 -0.8062
 2066SOL     OW 8035   4.904   4.459   0.026  0.1869  0.1732 -0.2036
 2066SOL    HW2 8036   4.961   4.519   0.074 -0.4270  0.3785  0.2734
 2066SOL    HW3 8037   4.831   4.442   0.085  1.6587 -3.3103  0.9118
 2066SOL    MW4 8038   4.902   4.465   0.040 -0.1897 -0.2930  0.0979
 2067SOL     OW 8039   4.772   5.243   1.633  0.9641  0.3732  0.6404
 2067SOL    HW2 8040   4.853   5.201   1.605  1.6375  1.5987  0.6907
 2067SOL    HW3 8041   4.797   5.332   1.656 -0.6163  1.1536 -0.4804
 2067SOL    MW4 8042   4.786   5.249   1.633  0.0650  0.3574  0.0783
 2068SOL     OW 8043   2.388   2.852   6.212  0.0881  0.2104 -0.3583
 2068SOL    HW2 8044   2.306   2.807   6.231 -0.8255  2.6073  1.9352
 2068SOL    HW3 8045   2.364   2.922   6.152  0.2763  1.3034  0.7976
 2068SOL    MW4 8046   2.374   2.855   6.207 -0.3184  0.3785  0.4081
 2069SOL     OW 8047   5.783   5.138   1.226  0.0715  0.0440 -0.1426
 2069SOL    HW2 8048   5.837   5.214   1.247 -0.1792 -0.1502  1.3173
 2069SOL    HW3 8049   5.843   5.064   1.231 -0.2499 -0.1525  1.3100
 2069SOL    MW4 8050   5.798   5.138   1.230 -0.1114 -0.6235 -0.5070
 2070SOL     OW 8051   2.241   0.588   5.217  0.1577 -0.6671 -0.5043
 2070SOL    HW2 8052   2.334   0.605   5.208 -0.0318  1.0090  0.2597
 2070SOL    HW3 8053   2.200   0.642   5.148 -0.3553  0.5222  0.6768
 2070SOL    MW4 8054   2.248   0.598   5.207 -0.4821  0.0171 -0.3017
 2071SOL     OW 8055   4.532   3.970   3.259  0.3737  0.3276  0.1535
 2071SOL    HW2 8056   4.502   4.027   3.189 -0.9412 -0.7952 -0.2431
 2071SOL    HW3 8057   4.461   3.907   3.271  1.5723 -0.9558  0.8669
 2071SOL    MW4 8058   4.519   3.969   3.251 -0.4747 -0.1170  0.4110
 2072SOL     OW 8059   5.359   0.989   2.797 -0.1250 -0.1075  0.1847
 2072SOL    HW2 8060   5.356   1.085   2.800  0.5105 -0.0995  2.0584
 2072SOL    HW3 8061   5.381   0.968   2.706 -0.3538  1.5105 -0.2767
 2072SOL    MW4 8062   5.362   0.999   2.785 -0.0959  0.1247  0.3242
 2073SOL     OW 8063   0.130   1.634   1.680 -0.4318 -0.4939 -0.4934
 2073SOL    HW2 8064   0.085   1.564   1.729  0.7207 -1.2138 -0.4227
 2073SOL    HW3 8065   0.133   1.602   1.590  0.6758 -0.8652 -0.3436
 2073SOL    MW4 8066   0.125   1.620   1.675 -0.2480  0.6203  0.3371
 2074SOL     OW 8067   1.492   4.338   5.541  0.1634 -0.1285 -0.2712
 2074SOL    HW2 8068   1.562   4.314   5.480  1.4081  2.0585  0.2052
 2074SOL    HW3 8069   1.508   4.282   5.617  1.8852  0.7799  0.1025
 2074SOL    MW4 8070   1.504   4.327   5.543  0.1201 -0.1304 -0.6538
 2075SOL     OW 8071   5.203   1.717   1.925  0.0847  0.8701 -0.1547
 2075SOL    HW2 8072   5.127   1.661   1.939  0.5380 -0.2969 -2.0097
 2075SOL    HW3 8073   5.167   1.805   1.917 -0.8142  0.6572  1.2326
 2075SOL    MW4 8074   5.188   1.721   1.926  0.6999  0.3836  0.4721
 2076SOL     OW 8075   1.773   1.228   6.038  0.2839 -0.0371 -0.5579
 2076SOL    HW2 8076   1.794   1.319   6.056 -1.3385  0.5616 -1.4907
 2076SOL    HW3 8077   1.725   1.198   6.115  2.6811 -0.8220  0.7202
 2076SOL    MW4 8078   1.769   1.236   6.050  0.3481 -0.5061  0.5846
 2077SOL     OW 8079   3.619   6.026   2.834  0.8236 -0.2085 -0.6527
 2077SOL    HW2 8080   3.664   6.063   2.911  0.5344 -0.3758 -0.4048
 2077SOL    HW3 8081   3.688   5.979   2.788  1.3438  1.1079 -1.2843
 2077SOL    MW4 8082   3.634   6.025   2.838  0.1212  0.3465  0.1838
 2078SOL     OW 8083   0.313   0.175   5.662  0.1987  0.2480 -0.4616
 2078SOL    HW2 8084   0.353   0.149   5.745  0.2676  0.7427 -0.3390
 2078SOL    HW3 8085   0.311   0.270   5.665  1.4781  0.3440 -1.6303
 2078SOL    MW4 8086   0.318   0.184   5.673  0.3736  0.1040  0.7390
 2079SOL     OW 8087   5.733   2.578   3.555 -0.1916  0.7381  0.0447
 2079SOL    HW2 8088   5.721   2.486   3.532 -2.8537  1.2670 -1.0462
 2079SOL    HW3 8089   5.827   2.593   3.545  0.1880 -1.6318 -0.5613
 2079SOL    MW4 8090   5.744   2.568   3.551  0.1301 -0.2239  0.2071
 2080SOL     OW 8091   3.764   2.179   0.045 -0.4294  0.0708 -0.2014
 2080SOL    HW2 8092   3.682   2.171  -0.002 -1.2068  2.6899  0.5797
 2080SOL    HW3 8093   3.818   2.236  -0.009  0.0732  0.0805  0.3015
 2080SOL    MW4 8094   3.760   2.185   0.032 -0.0642  0.0113 -0.0990
 2081SOL     OW 8095   3.897   5.136   6.222 -0.2018  0.8506  0.4486
 2081SOL    HW2 8096   3.958   5.207   6.202  0.9272 -0.1546  0.2616
 2081SOL    HW3 8097   3.951   5.068   6.263 -1.4564  0.5270  1.6317
 2081SOL    MW4 8098   3.912   5.136   6.224  0.4456  0.7344  0.2631
 2082SOL     OW 8099   3.756   2.378   1.971  0.8554  0.1119 -0.3011
 2082SOL    HW2 8100   3.779   2.409   1.883  1.1882 -1.5163 -0.8163
 2082SOL    HW3 8101   3.813   2.303   1.986  1.6886  1.0996  1.8409
 2082SOL    MW4 8102   3.766   2.373   1.961 -0.5826  0.0790 -0.1492
 2083SOL     OW 8103   1.006   1.016   5.371 -0.0735  0.0028  0.0301
 2083SOL    HW2 8104   0.932   1.006   5.311  0.4458 -0.9171 -0.4712
 2083SOL    HW3 8105   0.997   1.105   5.406 -2.6579 -0.7799  1.6411
 2083SOL    MW4 8106   0.995   1.027   5.368 -0.0498 -0.2442 -0.3425
 2084SOL     OW 8107   5.268   3.639   6.386 -0.1092  0.5412  0.2247
 2084SOL    HW2 8108   5.273   3.684   6.301 -0.5385 -1.3416 -0.8730
 2084SOL    HW3 8109   5.346   3.668   6.433  1.3478  0.0241 -1.7005
 2084SOL    MW4 8110   5.279   3.649   6.381 -0.4342  0.4705  0.5265
 2085SOL     OW 8111   3.280   5.965   4.889 -0.3542  0.1309  0.1235
 2085SOL    HW2 8112   3.300   6.002   4.975 -0.5646 -0.2017  0.3182
 2085SOL    HW3 8113   3.267   6.041   4.832  1.0035  0.3666  0.0873
 2085SOL    MW4 8114   3.281   5.980   4.893  0.1884 -0.3215 -0.1048
 2086SOL     OW 8115   3.833   4.732   0.578 -0.3230 -0.1749 -0.0599
 2086SOL    HW2 8116   3.832   4.802   0.643  2.3122 -0.6127  0.5846
 2086SOL    HW3 8117   3.811   4.653   0.628  1.0438 -0.4114  0.2050
 2086SOL    MW4 8118   3.830   4.731   0.594  0.3213 -0.4219  0.5149
 2087SOL     OW 8119   1.223   6.359   5.225  0.3205 -0.1364  0.1149
 2087SOL    HW2 8120   1.271   6.373   5.143  1.5585  2.2021  1.1477
 2087SOL    HW3 8121   1.263   6.280   5.262  2.1301  0.6900  0.0373
 2087SOL    MW4 8122   1.235   6.350   5.219 -0.3248  0.0209 -0.5488
 2088SOL     OW 8123   1.882   6.184   1.251  0.2489  0.2559 -0.3231
 2088SOL    HW2 8124   1.962   6.133   1.246  0.4931  0.5908  0.1141
 2088SOL    HW3 8125   1.812   6.119   1.245  0.4580 -0.7004  4.0455
 2088SOL    MW4 8126   1.883   6.169   1.250 -0.0333  0.1359 -0.4812
 2089SOL     OW 8127   0.216   5.644   1.983  0.2146  0.1545  0.8519
 2089SOL    HW2 8128   0.195   5.679   1.896 -0.7464 -1.0290  0.5720
 2089SOL    HW3 8129   0.154   5.572   1.995  1.0094 -0.3528  2.1007
 2089SOL    MW4 8130   0.205   5.639   1.973 -0.4366 -0.3130  0.5462
 2090SOL     OW 8131   4.129   0.084   3.140  0.4377  0.7473 -0.2431
 2090SOL    HW2 8132   4.135   0.163   3.194  0.6812  0.0105  0.8357
 2090SOL    HW3 8133   4.220   0.054   3.133  0.0350 -1.7917  3.0115
 2090SOL    MW4 8134   4.142   0.091   3.146  0.4460  1.2474  0.1178
 2091SOL     OW 8135   0.578   0.425   0.437 -0.5047  0.0707 -0.0854
 2091SOL    HW2 8136   0.538   0.340   0.456  0.1010 -0.1200  0.4004
 2091SOL    HW3 8137   0.644   0.406   0.370 -0.7365  0.2570 -0.3690
 2091SOL    MW4 8138   0.582   0.411   0.431 -0.0598 -0.3531 -0.5552
 2092SOL     OW 8139   4.195   3.046   0.633 -0.5564  0.1746 -0.7885
 2092SOL    HW2 8140   4.163   3.057   0.543 -1.3360  0.7422 -0.4559
 2092SOL    HW3 8141   4.191   3.134   0.670  1.7972  0.3659 -0.8328
 2092SOL    MW4 8142   4.190   3.059   0.626  0.4878  0.6335 -0.3988
 2093SOL     OW 8143   1.578   1.672   0.958 -0.4862 -0.2125 -0.2378
 2093SOL    HW2 8144   1.610   1.718   0.881 -1.1661 -0.3844 -0.6252
 2093SOL    HW3 8145   1.596   1.580   0.940  1.1470 -0.1169  0.6634
 2093SOL    MW4 8146   1.585   1.666   0.946 -0.1861  0.1379  0.0996
 2094SOL     OW 8147   3.405   0.188   6.076  0.1722  0.2342 -0.0248
 2094SOL    HW2 8148   3.379   0.241   6.000  2.0283 -0.6437 -1.3848
 2094SOL    HW3 8149   3.327   0.184   6.131 -0.3734  3.4972 -0.3131
 2094SOL    MW4 8150   3.392   0.195   6.073 -0.5623 -0.1568  0.2622
 2095SOL     OW 8151   1.918   3.345   1.356 -0.2466 -0.0177 -0.3707
 2095SOL    HW2 8152   1.860   3.292   1.301  1.1491 -0.9046 -1.0493
 2095SOL    HW3 8153   1.988   3.373   1.297  0.2934  0.6203  0.5416
 2095SOL    MW4 8154   1.919   3.342   1.341  0.2590  0.5014 -0.2806
 2096SOL     OW 8155   5.953   4.509   3.920  0.0581 -0.0785 -0.5191
 2096SOL    HW2 8156   5.932   4.455   3.844 -2.0607 -2.1861  1.4082
 2096SOL    HW3 8157   5.869   4.543   3.949  0.8944  1.1183  0.6092
 2096SOL    MW4 8158   5.939   4.507   3.914  0.0462  0.3882  0.1253
 2097SOL     OW 8159   4.670   4.989   1.703  0.2113  0.6066  0.4951
 2097SOL    HW2 8160   4.739   4.944   1.654 -1.7038 -0.5935 -1.2357
 2097SOL    HW3 8161   4.685   5.082   1.684  0.7954  0.3104 -0.6145
 2097SOL    MW4 8162   4.681   4.995   1.694  0.2120  0.0025  0.0442
 2098SOL     OW 8163   4.529   6.353   0.860  0.3534  0.1939 -0.0204
 2098SOL    HW2 8164   4.507   6.316   0.775  0.3054 -0.2680  0.1860
 2098SOL    HW3 8165   4.585   6.287   0.901  1.7546  1.1370 -0.3391
 2098SOL    MW4 8166   4.533   6.339   0.854  0.5888  0.4469  0.6252
 2099SOL     OW 8167   3.201   6.141   4.698  0.0405  0.4037 -0.5174
 2099SOL    HW2 8168   3.117   6.167   4.736  0.4859 -1.2713  1.8003
 2099SOL    HW3 8169   3.257   6.219   4.708 -0.9003  1.1942 -1.1757
 2099SOL    MW4 8170   3.197   6.155   4.704 -0.5563 -0.2634 -0.6202
 2100SOL     OW 8171   1.380   3.461   5.708  0.4229  0.0995  0.2162
 2100SOL    HW2 8172   1.450   3.473   5.772  1.2190  0.6908 -0.7391
 2100SOL    HW3 8173   1.340   3.547   5.699 -0.0446 -0.1057  0.3294
 2100SOL    MW4 8174   1.384   3.474   5.715 -0.1645  0.2094  0.3948
 2101SOL     OW 8175   4.611   1.714   2.917  0.0833 -0.2881  0.3409
 2101SOL    HW2 8176   4.534   1.731   2.863 -0.5500  0.8145  1.5578
 2101SOL    HW3 8177   4.676   1.777   2.887 -0.2581  0.3052  0.8418
 2101SOL    MW4 8178   4.609   1.724   2.906  0.5009 -0.5567 -0.1164
 2102SOL     OW 8179   0.714   0.148   1.633  0.0197 -0.7599  0.6095
 2102SOL    HW2 8180   0.687   0.106   1.551  0.1536 -0.9564  0.6681
 2102SOL    HW3 8181   0.634   0.152   1.686 -0.1741 -0.2185  0.2901
 2102SOL    MW4 8182   0.700   0.143   1.629  0.1409  0.1631 -0.1711
 2103SOL     OW 8183   5.526   5.020   0.842 -0.1785  0.1997  0.6891
 2103SOL    HW2 8184   5.510   5.088   0.776  1.4834 -0.3804 -0.3692
 2103SOL    HW3 8185   5.481   4.942   0.808 -1.6597  0.5890  1.6557
 2103SOL    MW4 8186   5.518   5.019   0.829 -0.0929  0.6600 -1.1205
 2104SOL     OW 8187   1.820   5.699   0.172 -0.2255 -0.5842  0.2133
 2104SOL    HW2 8188   1.797   5.616   0.213 -0.1570 -0.6808  0.0585
 2104SOL    HW3 8189   1.873   5.674   0.096 -1.8243 -0.5322 -0.9949
 2104SOL    MW4 8190   1.824   5.684   0.167 -0.2064  0.8246 -0.1631
 2105SOL     OW 8191   0.062   2.293   4.662  0.4271 -0.0207 -0.6269
 2105SOL    HW2 8192   0.109   2.222   4.706 -0.8453  0.1985  1.1881
 2105SOL    HW3 8193   0.021   2.342   4.732 -0.2211  1.4622 -1.9708
 2105SOL    MW4 8194   0.063   2.290   4.677  0.0766  0.4575  0.2112
 2106SOL     OW 8195   5.841   3.539   6.020 -0.1854  0.1883  0.0273
 2106SOL    HW2 8196   5.836   3.620   6.071  0.0040 -0.4711  1.1445
 2106SOL    HW3 8197   5.875   3.566   5.935  0.1952  1.2316  0.4858
 2106SOL    MW4 8198   5.844   3.553   6.016 -0.1043  0.8137 -0.0146
 2107SOL     OW 8199   3.846   0.701   0.833  0.0517  0.2250  0.0448
 2107SOL    HW2 8200   3.865   0.622   0.883  0.2038  0.4181  0.2957
 2107SOL    HW3 8201   3.758   0.726   0.861 -0.1238 -0.0308 -0.2702
 2107SOL    MW4 8202   3.837   0.694   0.844 -0.6307  0.0428 -0.2363
 2108SOL     OW 8203   4.650   3.155   2.036 -0.3406 -0.4819 -0.3112
 2108SOL    HW2 8204   4.709   3.141   2.110 -1.6446 -0.5345  0.7437
 2108SOL    HW3 8205   4.695   3.115   1.962 -0.0089 -2.4353  0.8834
 2108SOL    MW4 8206   4.664   3.148   2.036  0.7754  0.0443  0.1886
 2109SOL     OW 8207   4.466   4.808   3.383  0.5352  0.1241 -0.0349
 2109SOL    HW2 8208   4.448   4.809   3.289 -0.5830  2.5420  0.1298
 2109SOL    HW3 8209   4.561   4.818   3.390  0.4466  1.8990 -0.9444
 2109SOL    MW4 8210   4.476   4.809   3.372  0.3101  0.0686  0.4414
 2110SOL     OW 8211   2.231   0.493   2.590  0.1387  0.1025 -0.1720
 2110SOL    HW2 8212   2.289   0.479   2.515  0.0994 -0.9703 -0.0172
 2110SOL    HW3 8213   2.167   0.558   2.559  0.3455 -0.0450 -0.9344
 2110SOL    MW4 8214   2.231   0.500   2.576  0.2232  0.2587 -0.0780
 2111SOL     OW 8215   4.932   0.524   4.028  0.4275  0.2596  0.5229
 2111SOL    HW2 8216   4.929   0.597   4.089 -0.3752  0.1324  0.6412
 2111SOL    HW3 8217   5.016   0.480   4.046  0.5059  0.6263  1.0494
 2111SOL    MW4 8218   4.943   0.528   4.038 -0.3871 -0.1023  0.9729
 2112SOL     OW 8219   2.321   5.739   3.822  0.2605 -0.3786  0.3527
 2112SOL    HW2 8220   2.390   5.683   3.857  0.6035  0.9094  1.8513
 2112SOL    HW3 8221   2.367   5.818   3.794 -0.4162 -0.1805 -0.2180
 2112SOL    MW4 8222   2.336   5.742   3.823  0.3701  0.1746  0.1810
 2113SOL     OW 8223   4.787   5.601   3.317  0.5703  0.1108  0.3652
 2113SOL    HW2 8224   4.726   5.571   3.385  1.4576  0.2817  1.2681
 2113SOL    HW3 8225   4.832   5.522   3.288 -0.1089 -0.0284 -0.3641
 2113SOL    MW4 8226   4.785   5.587   3.322  0.4958  0.1087 -0.1591
 2114SOL     OW 8227   2.816   1.853   3.384  0.2240 -0.0687 -0.4639
 2114SOL    HW2 8228   2.804   1.771   3.337  0.7332 -1.0051  0.9757
 2114SOL    HW3 8229   2.909   1.874   3.374  0.7000 -1.1026  1.3471
 2114SOL    MW4 8230   2.827   1.845   3.376 -0.2388  0.0143  0.0115
 2115SOL     OW 8231   2.806   2.323   2.693 -0.0690  0.0808 -0.0969
 2115SOL    HW2 8232   2.727   2.345   2.744  0.1717  0.4687  0.1164
 2115SOL    HW3 8233   2.781   2.247   2.641 -0.3929 -0.1811  0.4349
 2115SOL    MW4 8234   2.792   2.316   2.693  0.0388 -0.3125  0.3408
 2116SOL     OW 8235   3.248   5.291   0.519 -0.5336 -0.3289  0.0021
 2116SOL    HW2 8236   3.164   5.247   0.513 -2.0019  2.0588  1.4081
 2116SOL    HW3 8237   3.259   5.335   0.434 -0.7564 -0.5620 -0.1449
 2116SOL    MW4 8238   3.239   5.291   0.507 -0.0505  0.0016 -0.3774
 2117SOL     OW 8239   1.548   0.785   4.078 -0.0336 -0.4204 -0.2684
 2117SOL    HW2 8240   1.625   0.837   4.101  0.4869 -1.1553 -0.3414
 2117SOL    HW3 8241   1.504   0.770   4.161 -0.4136  0.4704 -0.2908
 2117SOL    MW4 8242   1.552   0.790   4.092  0.2823  0.7994 -0.0158
 2118SOL     OW 8243   0.300   6.195   2.154 -0.3185  0.1872 -0.4821
 2118SOL    HW2 8244   0.325   6.265   2.214 -1.8260 -0.9803  1.6534
 2118SOL    HW3 8245   0.214   6.166   2.186 -0.2015 -1.9436 -1.9216
 2118SOL    MW4 8246   0.292   6.201   2.166  0.2451 -0.1967 -0.3496
 2119SOL     OW 8247   5.693   4.150   5.728  0.2017 -0.2553 -0.4557
 2119SOL    HW2 8248   5.741   4.069   5.717 -0.5149 -0.8778  0.8118
 2119SOL    HW3 8249   5.608   4.134   5.685 -1.5369 -1.7178  3.1209
 2119SOL    MW4 8250   5.688   4.137   5.721  0.1166  0.3385  0.2266
 2120SOL     OW 8251   2.740   3.030   6.144  0.4868 -0.3486 -0.0344
 2120SOL    HW2 8252   2.673   3.094   6.118  0.4404 -0.0701  0.7531
 2120SOL    HW3 8253   2.691   2.961   6.189  0.7918  0.2170  1.2123
 2120SOL    MW4 8254   2.724   3.030   6.147 -0.4204 -0.1477 -0.1023
 2121SOL     OW 8255   3.193   1.508   4.049 -0.1636 -0.2901  0.3962
 2121SOL    HW2 8256   3.132   1.581   4.050  0.1090 -0.0071 -0.9745
 2121SOL    HW3 8257   3.238   1.516   3.965  0.6323 -1.4120  0.6919
 2121SOL    MW4 8258   3.191   1.518   4.038  0.0032 -0.2672  0.4339
 2122SOL     OW 8259   4.056   2.754   5.809  0.3320  0.1297  0.1198
 2122SOL    HW2 8260   4.131   2.812   5.817  0.7787 -0.6849  2.6568
 2122SOL    HW3 8261   4.031   2.734   5.899 -0.0673 -3.2076 -0.5808
 2122SOL    MW4 8262   4.063   2.759   5.822 -0.2075  0.1020  0.3714
 2123SOL     OW 8263   4.345   4.217   3.829  0.6217  0.0581 -0.1506
 2123SOL    HW2 8264   4.377   4.247   3.914  0.9430 -0.0792 -0.2215
 2123SOL    HW3 8265   4.263   4.265   3.815  0.0921 -0.5780  0.6462
 2123SOL    MW4 8266   4.338   4.227   3.838  0.0767  0.0238  0.1474
 2124SOL     OW 8267   2.970   6.024   5.611 -0.1124  0.4553 -0.4359
 2124SOL    HW2 8268   3.044   6.053   5.557  0.7951  0.8234  0.9615
 2124SOL    HW3 8269   3.005   6.020   5.700 -1.9524  1.2795  0.3713
 2124SOL    MW4 8270   2.985   6.027   5.616  0.4002 -0.5249  0.0770
 2125SOL     OW 8271   0.390   5.500   2.965  0.1576 -0.2262  0.1079
 2125SOL    HW2 8272   0.298   5.498   2.937  0.7886 -1.2950 -2.1056
 2125SOL    HW3 8273   0.424   5.583   2.933  0.1968 -0.2380  0.1177
 2125SOL    MW4 8274   0.382   5.511   2.957 -0.0687  0.3722  0.6254
 2126SOL     OW 8275   1.563   0.734   3.808  0.2024 -0.0781  0.5796
 2126SOL    HW2 8276   1.558   0.770   3.897  0.2553 -3.1896  1.9873
 2126SOL    HW3 8277   1.477   0.695   3.793  0.3161  0.0840 -0.5975
 2126SOL    MW4 8278   1.551   0.734   3.818  0.6772 -0.1553 -0.1797
 2127SOL     OW 8279   0.634   2.319   2.931 -0.5686 -0.0531 -0.4102
 2127SOL    HW2 8280   0.598   2.351   3.014  0.3912 -0.6154  0.2472
 2127SOL    HW3 8281   0.674   2.396   2.890  1.4211 -0.2670  0.9925
 2127SOL    MW4 8282   0.634   2.333   2.937  0.2575  0.2355  0.4649
 2128SOL     OW 8283   4.536   4.927   4.662 -0.6231 -0.1871  0.3338
 2128SOL    HW2 8284   4.467   4.974   4.616 -0.7778 -1.1369 -0.4225
 2128SOL    HW3 8285   4.616   4.973   4.639 -0.9178  0.5629  0.7488
 2128SOL    MW4 8286   4.537   4.939   4.653 -0.2156 -0.4747  0.2342
 2129SOL     OW 8287   2.308   3.787   0.243 -0.2191 -0.1227  0.6325
 2129SOL    HW2 8288   2.356   3.799   0.324 -1.2678 -1.0179  1.4093
 2129SOL    HW3 8289   2.303   3.692   0.231  0.0856 -0.0006 -0.5821
 2129SOL    MW4 8290   2.313   3.776   0.252  0.1221  0.1808  0.9537
 2130SOL     OW 8291   4.122   5.268   0.413 -0.0440 -0.0131 -0.2894
 2130SOL    HW2 8292   4.047   5.210   0.419 -0.5271  0.6059 -0.2400
 2130SOL    HW3 8293   4.185   5.221   0.358 -0.0312 -0.9981  0.5392
 2130SOL    MW4 8294   4.121   5.254   0.407 -0.1067 -0.2802  0.1235
 2131SOL     OW 8295   3.705   0.248   0.748  0.0584  0.5266  0.0094
 2131SOL    HW2 8296   3.797   0.227   0.736 -0.2299  0.1004 -1.7183
 2131SOL    HW3 8297   3.658   0.170   0.718 -0.8696  0.5592  1.2856
 2131SOL    MW4 8298   3.711   0.235   0.742 -0.0541 -0.0399  0.3401
 2132SOL     OW 8299   3.128   0.195   4.424  0.4991 -0.0794 -0.1250
 2132SOL    HW2 8300   3.125   0.151   4.509  2.3648 -1.8536 -0.8999
 2132SOL    HW3 8301   3.052   0.254   4.425 -0.0836 -0.7463  2.3609
 2132SOL    MW4 8302   3.117   0.197   4.435 -0.1460  0.4187 -0.2400
 2133SOL     OW 8303   0.032   6.084   0.291  0.0584  0.5718 -0.5938
 2133SOL    HW2 8304  -0.048   6.059   0.338 -0.9337  2.2451 -1.2776
 2133SOL    HW3 8305   0.025   6.038   0.207  0.2187  0.1019 -0.3537
 2133SOL    MW4 8306   0.020   6.075   0.286 -0.1097 -0.2448 -0.2202
 2134SOL     OW 8307   2.860   3.209   2.081 -0.0788 -0.0579  0.3054
 2134SOL    HW2 8308   2.783   3.252   2.043 -0.7672  0.1560  1.8227
 2134SOL    HW3 8309   2.825   3.130   2.122  0.4520  0.1660  1.2240
 2134SOL    MW4 8310   2.845   3.204   2.082 -0.4407  0.1276  0.2521
 2135SOL     OW 8311   0.359   3.962   0.470  0.5049  0.1996 -0.2388
 2135SOL    HW2 8312   0.319   3.999   0.392  2.2332 -0.4337 -1.4956
 2135SOL    HW3 8313   0.396   4.037   0.517  1.7523  0.3525 -1.4277
 2135SOL    MW4 8314   0.359   3.976   0.466 -0.2935  0.1495 -0.2292
 2136SOL     OW 8315   5.619   3.433   0.424 -0.3342 -0.3850 -0.4129
 2136SOL    HW2 8316   5.697   3.411   0.477 -0.4891 -0.5662 -0.2569
 2136SOL    HW3 8317   5.600   3.524   0.446 -1.6165 -1.0354  1.4283
 2136SOL    MW4 8318   5.627   3.442   0.434  0.0693 -0.0969  0.0276
 2137SOL     OW 8319   2.603   1.120   1.137  0.2255 -0.2455 -0.4742
 2137SOL    HW2 8320   2.696   1.140   1.127  0.7613 -2.1236  0.2721
 2137SOL    HW3 8321   2.589   1.045   1.079 -0.4750 -0.8623  0.4754
 2137SOL    MW4 8322   2.614   1.113   1.128  0.2180 -0.1648 -0.2105
 2138SOL     OW 8323   4.516   4.599   3.906 -0.2716  0.0093 -0.4299
 2138SOL    HW2 8324   4.495   4.685   3.943  1.8225  0.9142 -1.2230
 2138SOL    HW3 8325   4.478   4.537   3.968 -0.9680  1.4888  0.6945
 2138SOL    MW4 8326   4.508   4.603   3.919 -0.6952 -0.2210  0.9790
 2139SOL     OW 8327   2.725   1.926   4.236 -0.4079 -0.1704 -0.1655
 2139SOL    HW2 8328   2.647   1.879   4.205 -0.1049  0.2748 -1.6659
 2139SOL    HW3 8329   2.757   1.973   4.159  0.8363  0.3714  0.6547
 2139SOL    MW4 8330   2.719   1.926   4.222 -0.1920  0.2467  0.5375
 2140SOL     OW 8331   5.865   0.281   4.213 -0.3079  0.2433  0.2262
 2140SOL    HW2 8332   5.937   0.336   4.244 -0.5521 -0.4077  2.0263
 2140SOL    HW3 8333   5.886   0.266   4.120  0.5638  2.0613  0.0828
 2140SOL    MW4 8334   5.877   0.286   4.205 -0.0502  0.5473  0.0093
 2141SOL     OW 8335   1.390   5.984   2.348 -0.0241 -0.6186  0.5270
 2141SOL    HW2 8336   1.331   5.973   2.423 -0.1648 -2.8535  0.1537
 2141SOL    HW3 8337   1.333   6.009   2.276  0.1486  1.8463  1.1639
 2141SOL    MW4 8338   1.374   5.986   2.349  0.3220  0.3466  0.0524
 2142SOL     OW 8339   5.292   5.420   0.710 -0.2177  0.0682  0.3048
 2142SOL    HW2 8340   5.333   5.360   0.648  0.0709 -0.0533  0.6116
 2142SOL    HW3 8341   5.348   5.497   0.708  1.5152 -1.0254  2.5813
 2142SOL    MW4 8342   5.305   5.422   0.701  0.0931  0.3950 -0.0548
 2143SOL     OW 8343   0.868   1.493   5.834  0.3543  0.0121 -0.9253
 2143SOL    HW2 8344   0.943   1.500   5.893  0.0528 -1.3739 -0.3340
 2143SOL    HW3 8345   0.856   1.399   5.822 -1.9103  0.1558 -0.2077
 2143SOL    MW4 8346   0.876   1.481   5.840  0.1244 -0.0310 -0.4191
 2144SOL     OW 8347   5.648   3.983   4.759  0.3934  0.5102  0.2047
 2144SOL    HW2 8348   5.692   3.898   4.763  0.0859  0.1852 -2.0699
 2144SOL    HW3 8349   5.706   4.037   4.707 -1.7524  0.0761 -2.8862
 2144SOL    MW4 8350   5.662   3.979   4.753  0.4131 -0.1565  0.1332
 2145SOL     OW 8351   1.983   1.950   1.936  0.6177 -0.6656 -0.4097
 2145SOL    HW2 8352   1.892   1.944   1.964  0.5234 -1.7793 -0.8867
 2145SOL    HW3 8353   1.978   1.959   1.841  0.9824  1.0997 -0.3078
 2145SOL    MW4 8354   1.970   1.950   1.927  0.8691 -0.2443  0.9657
 2146SOL     OW 8355   1.402   1.408   0.929 -0.3371  0.1265  0.0017
 2146SOL    HW2 8356   1.348   1.375   0.857  1.0055 -2.6237  0.1597
 2146SOL    HW3 8357   1.492   1.402   0.897  0.1346  1.6272  0.9094
 2146SOL    MW4 8358   1.407   1.403   0.915 -0.6646 -0.5212 -0.6531
 2147SOL     OW 8359   0.761   1.219   0.091 -0.7597 -0.2915 -0.0640
 2147SOL    HW2 8360   0.697   1.271   0.041  0.0462 -0.9755 -1.9216
 2147SOL    HW3 8361   0.750   1.130   0.058 -0.3477 -0.8347  1.2001
 2147SOL    MW4 8362   0.751   1.214   0.080  0.6527  0.0398  0.1129
 2148SOL     OW 8363   0.714   5.214   0.225  0.0497 -0.2253 -0.1401
 2148SOL    HW2 8364   0.732   5.146   0.160  0.3229  0.1422 -0.4511
 2148SOL    HW3 8365   0.696   5.166   0.306  1.5080 -0.6363 -0.0377
 2148SOL    MW4 8366   0.714   5.199   0.227  0.0624 -0.2943  0.2508
 2149SOL     OW 8367   3.647   4.383   2.159 -0.4053  0.0740  0.0044
 2149SOL    HW2 8368   3.695   4.438   2.222  0.6363 -0.4703 -0.2878
 2149SOL    HW3 8369   3.712   4.362   2.092 -0.6208 -1.9653  0.3856
 2149SOL    MW4 8370   3.662   4.388   2.159  0.6108 -0.1025  0.5352
 2150SOL     OW 8371   0.841   5.510   1.127  0.1300 -0.3414  0.4241
 2150SOL    HW2 8372   0.776   5.481   1.064 -1.1183  2.2065  0.4192
 2150SOL    HW3 8373   0.803   5.488   1.213 -0.2993  0.2702  0.3942
 2150SOL    MW4 8374   0.828   5.503   1.130 -0.0222  0.5106 -0.4584
 2151SOL     OW 8375   2.186   1.401   5.077 -0.5770  0.2694 -0.3368
 2151SOL    HW2 8376   2.119   1.464   5.050 -0.5406  0.8198  0.7827
 2151SOL    HW3 8377   2.228   1.373   4.995 -2.0533  0.0315 -1.0449
 2151SOL    MW4 8378   2.183   1.406   5.063 -0.2236 -0.8197 -0.2911
 2152SOL     OW 8379   6.244   3.584   2.803 -0.1294 -0.2507 -0.1401
 2152SOL    HW2 8380   6.180   3.594   2.733  0.9150  1.1225 -0.9634
 2152SOL    HW3 8381   6.303   3.659   2.792  0.5745 -0.4901  1.6750
 2152SOL    MW4 8382   6.243   3.595   2.792  0.2439 -0.2348  0.8496
 2153SOL     OW 8383   3.789   1.202   0.646 -0.0605 -0.1946  0.3612
 2153SOL    HW2 8384   3.803   1.120   0.600 -3.7259  0.3038 -2.0260
 2153SOL    HW3 8385   3.873   1.248   0.638  0.8686 -2.0604 -1.7848
 2153SOL    MW4 8386   3.802   1.198   0.639 -0.2841  0.1481  0.5088
 2154SOL     OW 8387   4.446   2.141   0.023 -0.1126  0.1634 -0.2187
 2154SOL    HW2 8388   4.391   2.164  -0.052  1.1307 -1.1928 -1.6109
 2154SOL    HW3 8389   4.535   2.164  -0.004  0.2817  0.3223  1.1407
 2154SOL    MW4 8390   4.450   2.147   0.009  1.0457 -0.1183  0.2310
 2155SOL     OW 8391   3.893   2.602   2.128 -0.4072  0.2923  0.0635
 2155SOL    HW2 8392   3.967   2.561   2.173 -0.8635 -1.1807 -0.4792
 2155SOL    HW3 8393   3.816   2.558   2.165 -0.8037 -0.9547 -2.0835
 2155SOL    MW4 8394   3.893   2.590   2.139 -0.1917 -0.2214  0.3228
 2156SOL     OW 8395   2.678   1.773   0.221  0.0872 -0.0946  0.4265
 2156SOL    HW2 8396   2.743   1.809   0.282  0.0567 -0.9167  0.9568
 2156SOL    HW3 8397   2.704   1.806   0.135  0.5225  0.5297  0.7963
 2156SOL    MW4 8398   2.690   1.782   0.217 -0.2686 -0.4196  0.5626
 2157SOL     OW 8399   4.806   1.449   2.755 -0.7528  0.3161 -0.0858
 2157SOL    HW2 8400   4.715   1.422   2.748 -0.7889  0.5970 -0.9205
 2157SOL    HW3 8401   4.816   1.481   2.844 -1.2969 -0.3264  0.2077
 2157SOL    MW4 8402   4.795   1.450   2.766 -0.1643  0.0788  0.2645
 2158SOL     OW 8403   1.625   3.631   5.958 -0.5441 -0.0689  0.2708
 2158SOL    HW2 8404   1.720   3.632   5.945 -0.9674  1.9180 -5.3787
 2158SOL    HW3 8405   1.599   3.541   5.941  0.1789 -0.3336  0.5259
 2158SOL    MW4 8406   1.634   3.619   5.954 -0.2785  0.4115 -0.0643
 2159SOL     OW 8407   4.003   3.170   5.657  0.1300 -0.1877 -0.1756
 2159SOL    HW2 8408   4.040   3.124   5.732  1.3351  0.8358 -0.0972
 2159SOL    HW3 8409   4.021   3.113   5.582 -0.0542 -0.6834  0.1543
 2159SOL    MW4 8410   4.010   3.157   5.657 -0.0006  0.4378  0.0900
 2160SOL     OW 8411   1.901   4.031   3.058 -0.2364 -0.4668 -0.0569
 2160SOL    HW2 8412   1.895   4.126   3.048 -2.5258 -0.4841  0.7283
 2160SOL    HW3 8413   1.871   3.996   2.974 -0.2998 -0.4978 -0.0214
 2160SOL    MW4 8414   1.897   4.039   3.045  0.2428 -0.5228 -0.3823
 2161SOL     OW 8415   0.044   3.517   0.260 -0.2531  0.2640 -0.5665
 2161SOL    HW2 8416   0.045   3.571   0.339  1.9215 -0.7788  0.1993
 2161SOL    HW3 8417   0.099   3.564   0.198  1.8040 -1.0336  0.1661
 2161SOL    MW4 8418   0.051   3.530   0.262  0.4018 -0.6575  0.4493
 2162SOL     OW 8419   1.235   6.059   1.678  0.3241 -0.2301 -0.3016
 2162SOL    HW2 8420   1.157   6.088   1.725 -1.1929 -0.8970 -2.2866
 2162SOL    HW3 8421   1.303   6.054   1.746 -1.5728 -0.5551  1.6868
 2162SOL    MW4 8422   1.234   6.062   1.693 -0.3526 -0.1951  0.1016
 2163SOL     OW 8423   5.919   6.277   2.619  0.3277  0.2057 -0.0113
 2163SOL    HW2 8424   5.871   6.307   2.541  0.2079 -0.4321 -0.1909
 2163SOL    HW3 8425   6.010   6.300   2.601  0.8511 -2.7161 -1.8150
 2163SOL    MW4 8426   5.925   6.284   2.606  0.0985 -0.5627  0.5916
 2164SOL     OW 8427   5.101   1.090   0.132  0.3698 -0.7600  0.2199
 2164SOL    HW2 8428   5.058   1.135   0.205  0.5471 -1.1588  0.5704
 2164SOL    HW3 8429   5.114   1.000   0.163  0.3360 -0.9647 -0.3471
 2164SOL    MW4 8430   5.097   1.084   0.146  0.1147 -0.2869 -0.8812
 2165SOL     OW 8431   3.664   3.518   6.083 -0.1186 -0.5394  0.3765
 2165SOL    HW2 8432   3.747   3.473   6.068  0.4412  1.1050 -2.0033
 2165SOL    HW3 8433   3.629   3.534   5.995 -2.4170 -0.1920  1.2897
 2165SOL    MW4 8434   3.671   3.514   6.070 -0.2777  0.0953  0.4628
 2166SOL     OW 8435   0.970   6.418   4.538 -0.0172  0.0795 -0.1454
 2166SOL    HW2 8436   0.995   6.412   4.446 -0.5641  0.5412 -0.3294
 2166SOL    HW3 8437   0.898   6.481   4.539 -0.7915 -0.7883  0.4362
 2166SOL    MW4 8438   0.964   6.425   4.526  0.2539 -0.3271 -0.2385
 2167SOL     OW 8439   0.080   5.850   2.093  0.0817 -0.4135  0.0766
 2167SOL    HW2 8440   0.108   5.790   2.024 -1.4770 -2.7614  1.3638
 2167SOL    HW3 8441   0.058   5.931   2.046 -0.9315 -1.9063 -2.2131
 2167SOL    MW4 8442   0.081   5.853   2.077 -0.3771 -0.0671  1.0015
 2168SOL     OW 8443   2.193   1.969   2.438  0.6201 -0.1109 -0.1192
 2168SOL    HW2 8444   2.284   2.001   2.436  0.2581  0.9236 -0.5805
 2168SOL    HW3 8445   2.169   1.974   2.531  0.6308  0.8436 -0.1498
 2168SOL    MW4 8446   2.202   1.974   2.450  0.3079 -0.1430 -0.5638
 2169SOL     OW 8447   1.353   4.254   4.941  0.3978  0.3466  0.1634
 2169SOL    HW2 8448   1.292   4.306   4.994 -0.6194 -0.5507 -0.0829
 2169SOL    HW3 8449   1.317   4.260   4.852  0.7145 -0.1292  0.0022
 2169SOL    MW4 8450   1.340   4.262   4.936 -0.2498 -0.5690  0.5048
 2170SOL     OW 8451   3.482   5.994   4.079  0.2138 -0.0321  0.2721
 2170SOL    HW2 8452   3.408   5.941   4.047  0.0679  0.1965  0.2318
 2170SOL    HW3 8453   3.475   5.989   4.174  1.5195 -1.9616  0.3430
 2170SOL    MW4 8454   3.471   5.986   4.087 -0.5381 -0.0954 -0.1241
 2171SOL     OW 8455   5.713   2.568   2.828 -0.1279 -0.2578  0.3907
 2171SOL    HW2 8456   5.629   2.596   2.863  0.0340  0.2370  0.3896
 2171SOL    HW3 8457   5.727   2.624   2.752 -0.1172 -0.8024 -0.0128
 2171SOL    MW4 8458   5.704   2.579   2.823 -0.5031 -0.1446  0.7867
 2172SOL     OW 8459   6.244   0.659   5.954 -0.0354  0.3828 -0.0591
 2172SOL    HW2 8460   6.309   0.622   6.015  0.8112  0.8765 -0.6453
 2172SOL    HW3 8461   6.278   0.746   5.932 -0.1259  0.0731 -1.5242
 2172SOL    MW4 8462   6.257   0.665   5.959 -0.1087 -0.0539 -0.1273
 2173SOL     OW 8463   4.739   1.872   3.532  0.0865 -0.3025  0.7396
 2173SOL    HW2 8464   4.739   1.935   3.460 -1.4272  0.4340  1.3391
 2173SOL    HW3 8465   4.670   1.810   3.510  0.5149 -0.8519  0.9205
 2173SOL    MW4 8466   4.730   1.872   3.520  0.0012  0.1679  0.1461
 2174SOL     OW 8467   4.766   2.866   3.167 -0.5006 -0.2709 -0.0841
 2174SOL    HW2 8468   4.752   2.862   3.072 -0.9873 -0.0218 -0.0239
 2174SOL    HW3 8469   4.729   2.785   3.201 -0.0907 -0.4813 -0.1337
 2174SOL    MW4 8470   4.760   2.855   3.159 -0.2073  0.4318  0.4886
 2175SOL     OW 8471   2.435   1.567   1.225 -0.1468 -0.0366 -0.1261
 2175SOL    HW2 8472   2.429   1.599   1.135  1.0168 -1.5214 -0.7655
 2175SOL    HW3 8473   2.356   1.515   1.238  0.1406 -0.5950 -0.6135
 2175SOL    MW4 8474   2.424   1.565   1.215  0.5415  0.1460 -0.0144
 2176SOL     OW 8475   1.225   6.228   4.506 -0.3084  0.0797 -0.0517
 2176SOL    HW2 8476   1.204   6.284   4.431 -0.7724 -0.7747 -0.5788
 2176SOL    HW3 8477   1.306   6.264   4.542 -1.3006  1.9072  0.4549
 2176SOL    MW4 8478   1.233   6.240   4.501 -0.4991 -0.4417 -0.3758
 2177SOL     OW 8479   5.950   1.457   3.218  0.5032 -0.3330 -0.1470
 2177SOL    HW2 8480   6.028   1.402   3.228  1.5359  1.1561  0.2885
 2177SOL    HW3 8481   5.969   1.535   3.270 -0.4141  0.9585 -1.6728
 2177SOL    MW4 8482   5.963   1.460   3.226  0.1179 -0.3586 -0.2145
 2178SOL     OW 8483   0.282   1.915   4.152 -0.2950  0.1676 -0.2018
 2178SOL    HW2 8484   0.308   1.984   4.213  0.7184  0.4875 -0.9793
 2178SOL    HW3 8485   0.230   1.960   4.085 -1.7617 -0.2480  0.5906
 2178SOL    MW4 8486   0.278   1.930   4.151  0.2760 -0.0627  0.3869
 2179SOL     OW 8487   0.825   0.943   1.276 -0.0831  0.7778  0.4079
 2179SOL    HW2 8488   0.868   0.913   1.356  1.0607  0.5631 -0.2546
 2179SOL    HW3 8489   0.740   0.977   1.304  0.4813  1.1062  1.7670
 2179SOL    MW4 8490   0.820   0.944   1.290  1.2167 -0.0506 -0.5426
 2180SOL     OW 8491   6.091   3.110   5.317 -0.0113 -0.5513  0.3997
 2180SOL    HW2 8492   6.153   3.128   5.388  0.5652 -0.0567 -0.2315
 2180SOL    HW3 8493   6.030   3.184   5.319 -0.6864 -1.0947  1.0979
 2180SOL    MW4 8494   6.091   3.122   5.327 -0.1710  0.3640 -0.0211
 2181SOL     OW 8495   5.188   2.098   3.951 -0.1233  0.4345  0.6662
 2181SOL    HW2 8496   5.209   2.017   3.997  1.1284 -1.2709 -2.5726
 2181SOL    HW3 8497   5.094   2.110   3.964  0.0963 -0.1545  3.1725
 2181SOL    MW4 8498   5.178   2.089   3.958 -0.2620  0.2420 -0.1694
 2182SOL     OW 8499   2.231   2.592   4.185  0.1443  0.0219  0.3584
 2182SOL    HW2 8500   2.220   2.544   4.103 -0.0829 -0.8206  0.8686
 2182SOL    HW3 8501   2.218   2.683   4.161 -1.5369 -0.3510 -0.2638
 2182SOL    MW4 8502   2.228   2.597   4.171  0.0923 -0.0828  0.1701
 2183SOL     OW 8503   5.815   0.668   3.372 -0.2118  0.4388  0.2109
 2183SOL    HW2 8504   5.758   0.691   3.299 -0.6322  0.2214  0.4676
 2183SOL    HW3 8505   5.755   0.639   3.441  0.2045  0.2746  0.5062
 2183SOL    MW4 8506   5.800   0.667   3.371  0.3834 -0.2203 -0.2133
 2184SOL     OW 8507   6.220   5.415   0.733 -0.0470  0.2493  0.5112
 2184SOL    HW2 8508   6.142   5.374   0.696  0.3612 -0.0161 -0.0681
 2184SOL    HW3 8509   6.285   5.409   0.664  0.5693  0.2244  1.0872
 2184SOL    MW4 8510   6.218   5.408   0.719 -0.1559  0.0178 -0.0903
 2185SOL     OW 8511   1.479   2.782   4.516  0.5508  0.8394  0.4164
 2185SOL    HW2 8512   1.495   2.801   4.608  0.0344 -1.7471  1.0999
 2185SOL    HW3 8513   1.565   2.788   4.475  1.1623 -0.1882  1.5131
 2185SOL    MW4 8514   1.492   2.786   4.522 -0.0529 -0.2934 -0.0743
 2186SOL     OW 8515   3.527   5.637   2.670  0.1509  0.5080 -0.0448
 2186SOL    HW2 8516   3.528   5.642   2.765  0.4110  2.0601 -0.1081
 2186SOL    HW3 8517   3.468   5.707   2.642 -0.6182 -0.4790 -1.0170
 2186SOL    MW4 8518   3.519   5.647   2.679 -0.6948 -0.2317  0.1183
 2187SOL     OW 8519   4.170   2.310   4.613 -0.4968 -0.1050 -0.2365
 2187SOL    HW2 8520   4.157   2.403   4.634 -0.0239 -0.4349  1.7085
 2187SOL    HW3 8521   4.085   2.270   4.627  0.0006 -0.4681  2.0882
 2187SOL    MW4 8522   4.157   2.317   4.617  0.0277  0.6972 -0.3358
 2188SOL     OW 8523   4.625   6.363   5.449  0.4601 -0.2512  0.3280
 2188SOL    HW2 8524   4.535   6.394   5.447  0.1882 -0.9994 -1.3718
 2188SOL    HW3 8525   4.633   6.314   5.531 -0.6863 -0.2064  0.4760
 2188SOL    MW4 8526   4.614   6.361   5.459  0.8590 -0.2314  0.1522
 2189SOL     OW 8527   2.931   2.344   1.464 -0.1797  0.2996  0.3684
 2189SOL    HW2 8528   2.938   2.324   1.557 -2.2719  1.7145  0.9086
 2189SOL    HW3 8529   2.871   2.278   1.430 -0.4528  0.5569  0.3390
 2189SOL    MW4 8530   2.924   2.333   1.472 -0.0628 -0.0946  0.4960
 2190SOL     OW 8531   2.179   4.202   0.512 -0.0577  0.0818  0.1126
 2190SOL    HW2 8532   2.183   4.120   0.561  0.3064  0.1684  0.2328
 2190SOL    HW3 8533   2.268   4.214   0.478  0.2418  1.0859  1.1850
 2190SOL    MW4 8534   2.191   4.193   0.514  0.4657 -0.0174 -0.1154
 2191SOL     OW 8535   4.245   2.700   4.209  0.5406 -0.3838 -0.0445
 2191SOL    HW2 8536   4.306   2.632   4.180  0.0134 -0.5328 -0.8493
 2191SOL    HW3 8537   4.185   2.711   4.135  1.1131  1.5518 -0.2701
 2191SOL    MW4 8538   4.245   2.692   4.195  0.2394 -0.1834  0.1073
 2192SOL     OW 8539   1.891   2.827   0.527  0.5762  0.0776 -0.4919
 2192SOL    HW2 8540   1.955   2.774   0.573  0.1057  0.5928  0.7977
 2192SOL    HW3 8541   1.812   2.773   0.525  0.3317  0.4032  0.1209
 2192SOL    MW4 8542   1.889   2.813   0.532 -0.3650  0.3895 -0.1714
 2193SOL     OW 8543   0.517   6.379   3.813 -0.1092 -0.2923 -0.2124
 2193SOL    HW2 8544   0.462   6.326   3.871 -0.1156 -0.6463 -0.5362
 2193SOL    HW3 8545   0.455   6.426   3.757 -0.1151  0.3975  0.3636
 2193SOL    MW4 8546   0.502   6.378   3.813  0.2576 -0.0238  0.0299
 2194SOL     OW 8547   0.265   6.356   1.102  0.0349 -0.1792  0.3548
 2194SOL    HW2 8548   0.343   6.342   1.049  0.0915 -2.2879  0.9308
 2194SOL    HW3 8549   0.298   6.371   1.191 -0.2107 -1.0160  0.5908
 2194SOL    MW4 8550   0.279   6.356   1.107 -0.0467  0.1612 -0.0142
 2195SOL     OW 8551   1.973   0.313   6.046  0.1378 -0.2510  0.5110
 2195SOL    HW2 8552   1.981   0.263   6.127  1.3860 -2.3323 -0.8114
 2195SOL    HW3 8553   1.901   0.272   5.999  0.3393  0.0232 -0.0503
 2195SOL    MW4 8554   1.965   0.301   6.050 -0.1646 -0.2934  0.0628
 2196SOL     OW 8555   1.826   4.615   6.216 -0.4189 -0.4541  0.8392
 2196SOL    HW2 8556   1.839   4.624   6.121 -2.7162 -0.2969  0.4641
 2196SOL    HW3 8557   1.833   4.521   6.232 -1.5180 -0.6750  0.1915
 2196SOL    MW4 8558   1.829   4.604   6.205 -0.4592  0.3028 -0.2013
 2197SOL     OW 8559   4.809   3.761   3.475  0.0445  0.3944 -0.3759
 2197SOL    HW2 8560   4.856   3.791   3.397  0.7847  1.1365  0.3255
 2197SOL    HW3 8561   4.860   3.797   3.548  0.2103 -1.5211  0.4959
 2197SOL    MW4 8562   4.822   3.770   3.475 -0.6708  0.4361  0.2730
 2198SOL     OW 8563   2.150   4.537   2.675 -0.2848 -0.0828  0.4923
 2198SOL    HW2 8564   2.135   4.445   2.699  0.1987 -0.3069 -0.0557
 2198SOL    HW3 8565   2.206   4.570   2.745 -0.1861 -0.2971  0.5169
 2198SOL    MW4 8566   2.155   4.529   2.688 -0.6761  0.1248  0.3341
 2199SOL     OW 8567   3.647   0.645   2.871 -0.1073 -0.1445 -0.8078
 2199SOL    HW2 8568   3.693   0.729   2.875  1.3503 -0.9456 -0.3022
 2199SOL    HW3 8569   3.625   0.626   2.962 -0.1051 -0.4948 -0.8817
 2199SOL    MW4 8570   3.650   0.654   2.883 -0.3582  0.4557 -0.0406
 2200SOL     OW 8571   5.787   5.525   5.405 -0.2869 -0.3252 -0.2638
 2200SOL    HW2 8572   5.747   5.438   5.404 -2.4430  0.5947  0.2331
 2200SOL    HW3 8573   5.738   5.575   5.339 -0.0022  0.8842  0.4122
 2200SOL    MW4 8574   5.775   5.520   5.396  0.6785 -0.1234 -0.3273
 2201SOL     OW 8575   4.551   2.255   3.290  0.4982  0.2662  0.2673
 2201SOL    HW2 8576   4.645   2.242   3.277  1.0502  1.7751  2.1996
 2201SOL    HW3 8577   4.526   2.185   3.351  0.4726  0.1195  0.0870
 2201SOL    MW4 8578   4.560   2.244   3.297 -0.2799  0.0054 -0.1798
 2202SOL     OW 8579   1.919   6.130   2.713  0.4982  0.4966 -0.5409
 2202SOL    HW2 8580   1.837   6.135   2.665  0.1761 -1.9848 -0.3459
 2202SOL    HW3 8581   1.939   6.222   2.734 -3.4572  1.1366  1.4947
 2202SOL    MW4 8582   1.911   6.143   2.710  0.1943  0.1643 -0.6081
 2203SOL     OW 8583   0.097   0.478   3.035  0.3255  0.7410  0.5082
 2203SOL    HW2 8584   0.179   0.456   2.993 -0.2404 -1.2151  0.3323
 2203SOL    HW3 8585   0.101   0.436   3.121 -0.1325  1.4057  0.8768
 2203SOL    MW4 8586   0.108   0.470   3.041  0.7474 -0.0385 -0.5252
 2204SOL     OW 8587   5.174   1.332   1.702  0.3689 -0.3370  0.6714
 2204SOL    HW2 8588   5.218   1.264   1.651  0.2902  0.0899  0.0227
 2204SOL    HW3 8589   5.221   1.333   1.786  0.6113 -0.9249  0.5498
 2204SOL    MW4 8590   5.186   1.323   1.707 -0.5895 -0.1453 -0.5459
 2205SOL     OW 8591   2.457   2.516   3.925 -0.8777  0.2351 -0.4535
 2205SOL    HW2 8592   2.367   2.483   3.915 -0.5947 -0.1888 -1.7822
 2205SOL    HW3 8593   2.447   2.609   3.943 -1.5944  0.0764  0.0319
 2205SOL    MW4 8594   2.444   2.524   3.926  0.0377 -0.1529 -0.4093
 2206SOL     OW 8595   6.055   0.258   5.646  0.3389 -0.0096 -0.0637
 2206SOL    HW2 8596   5.984   0.319   5.624  0.1050  0.8790  2.6603
 2206SOL    HW3 8597   6.022   0.172   5.620 -2.3444  0.2050  2.1101
 2206SOL    MW4 8598   6.041   0.255   5.640 -0.5407  0.4439 -0.9656
 2207SOL     OW 8599   3.905   0.819   3.871  0.2651  0.1223  0.1170
 2207SOL    HW2 8600   3.963   0.877   3.921  1.0505 -1.4894  1.1626
 2207SOL    HW3 8601   3.877   0.753   3.934 -0.5796 -0.6626 -1.0401
 2207SOL    MW4 8602   3.909   0.818   3.886 -0.0577 -0.1207  0.1814
 2208SOL     OW 8603   5.930   4.410   6.159 -0.5472  0.2281 -0.9016
 2208SOL    HW2 8604   5.870   4.466   6.208  1.0605  1.9502 -0.7805
 2208SOL    HW3 8605   5.962   4.346   6.224 -2.8108 -1.2904 -1.1730
 2208SOL    MW4 8606   5.927   4.409   6.174  0.1397 -0.0360 -0.2194
 2209SOL     OW 8607   3.188   5.697   2.879 -0.6079 -0.3746 -0.4008
 2209SOL    HW2 8608   3.251   5.768   2.887 -2.2136  1.1045 -0.2718
 2209SOL    HW3 8609   3.235   5.628   2.833  0.3778  1.6137 -2.5673
 2209SOL    MW4 8610   3.203   5.697   2.874  0.1801  0.1369 -0.0646
 2210SOL     OW 8611   4.658   4.869   2.389 -0.3358 -0.0705 -0.5697
 2210SOL    HW2 8612   4.735   4.917   2.359  1.0694 -1.1081  1.2071
 2210SOL    HW3 8613   4.618   4.837   2.308  1.4556 -0.0308 -1.5320
 2210SOL    MW4 8614   4.663   4.871   2.374  0.4145  0.0743  0.1528
 2211SOL     OW 8615   4.974   4.106   2.795  0.2960  0.0513  0.6654
 2211SOL    HW2 8616   4.983   4.044   2.723 -0.3794  0.3335  0.3282
 2211SOL    HW3 8617   4.914   4.173   2.762 -1.1028 -0.5195  1.9695
 2211SOL    MW4 8618   4.968   4.107   2.781  0.5863 -0.1921 -0.4061
 2212SOL     OW 8619   3.352   0.677   1.952 -0.2738 -0.2908  0.0910
 2212SOL    HW2 8620   3.381   0.713   2.036 -0.4945 -0.2661  0.1560
 2212SOL    HW3 8621   3.427   0.626   1.922 -0.2206 -0.3660  0.3432
 2212SOL    MW4 8622   3.366   0.675   1.959 -0.7226  0.1861 -0.2303
 2213SOL     OW 8623   5.864   1.042   4.568 -0.2796 -0.1398 -0.2676
 2213SOL    HW2 8624   5.886   1.031   4.476 -0.7280 -1.9951 -0.1806
 2213SOL    HW3 8625   5.781   0.996   4.579  0.2373 -0.7748  1.2512
 2213SOL    MW4 8626   5.856   1.035   4.557 -0.1147  0.2308  0.6681
 2214SOL     OW 8627   1.386   5.887   0.203 -0.0330  0.2472  0.1545
 2214SOL    HW2 8628   1.476   5.917   0.193 -0.0654  0.4490  0.4358
 2214SOL    HW3 8629   1.393   5.807   0.256 -0.0410  0.4440  0.4590
 2214SOL    MW4 8630   1.399   5.881   0.209 -0.2846 -0.3809  0.1832
 2215SOL     OW 8631   0.608   6.388   2.495 -0.1407  0.3866  0.6279
 2215SOL    HW2 8632   0.670   6.460   2.504  0.7030  0.0428 -1.6547
 2215SOL    HW3 8633   0.661   6.309   2.509 -0.5727  0.1548  0.9578
 2215SOL    MW4 8634   0.624   6.387   2.498  0.2568 -0.1163 -1.0226
 2216SOL     OW 8635   2.491   3.360   2.382 -0.3282  0.3349 -0.2948
 2216SOL    HW2 8636   2.415   3.330   2.433 -1.1039  0.6696 -1.2349
 2216SOL    HW3 8637   2.457   3.430   2.327  0.3470 -0.4243 -1.7229
 2216SOL    MW4 8638   2.476   3.365   2.382  0.6327 -0.2277  0.7227
 2217SOL     OW 8639   4.194   1.944   0.360 -0.2190 -0.1262 -0.0831
 2217SOL    HW2 8640   4.186   1.939   0.455 -0.2153 -1.0141 -0.1219
 2217SOL    HW3 8641   4.283   1.976   0.345  0.7995 -2.5696  0.2068
 2217SOL    MW4 8642   4.205   1.948   0.370  0.5309 -0.1782  0.2111
 2218SOL     OW 8643   0.533   5.693   0.530  0.4541 -0.1412  0.3974
 2218SOL    HW2 8644   0.567   5.615   0.486  0.0250  0.2855 -0.7210
 2218SOL    HW3 8645   0.572   5.690   0.618  2.2938 -0.3927 -0.3812
 2218SOL    MW4 8646   0.543   5.682   0.536 -0.0323 -0.2490 -0.0196
 2219SOL     OW 8647   0.017   6.386   2.817 -0.5032  0.6135 -0.0021
 2219SOL    HW2 8648  -0.054   6.322   2.823  0.6804 -0.6941  0.3851
 2219SOL    HW3 8649   0.068   6.373   2.896  0.9113  0.6267 -0.8787
 2219SOL    MW4 8650   0.014   6.376   2.828  0.0099 -0.7069  0.7311
 2220SOL     OW 8651   2.862   2.955   5.919  0.6680 -0.0215 -0.3448
 2220SOL    HW2 8652   2.812   2.979   5.997 -0.5754  2.1042 -1.7186
 2220SOL    HW3 8653   2.797   2.950   5.849  2.0726  0.8075 -1.7757
 2220SOL    MW4 8654   2.847   2.957   5.920 -0.6049  0.0813  0.5851
 2221SOL     OW 8655   2.682   1.062   1.574  0.0371  0.0655 -0.5875
 2221SOL    HW2 8656   2.776   1.053   1.590 -0.1030  0.7271  0.7844
 2221SOL    HW3 8657   2.651   0.972   1.562  0.2920 -0.5928  2.7058
 2221SOL    MW4 8658   2.690   1.049   1.575 -0.4816  0.5923  0.0680
 2222SOL     OW 8659   5.811   3.878   5.697 -0.0680 -0.2280  0.1326
 2222SOL    HW2 8660   5.892   3.896   5.649 -1.5240  1.0882 -1.9865
 2222SOL    HW3 8661   5.777   3.797   5.659  0.6233 -1.2529  1.6098
 2222SOL    MW4 8662   5.817   3.870   5.686  0.2590  0.3427  0.2406
 2223SOL     OW 8663   0.925   0.926   0.086 -0.1937  0.6244 -0.3213
 2223SOL    HW2 8664   0.988   0.979   0.038  1.5066 -0.5194  0.5643
 2223SOL    HW3 8665   0.973   0.846   0.109 -1.7766 -0.0171  0.9327
 2223SOL    MW4 8666   0.939   0.922   0.083  0.3968  0.1113  0.3055
 2224SOL     OW 8667   6.192   3.708   4.993 -0.1729  0.2053 -0.1345
 2224SOL    HW2 8668   6.103   3.713   4.959  0.0070  0.1136 -0.6254
 2224SOL    HW3 8669   6.188   3.750   5.079 -0.6031  0.5514 -0.3267
 2224SOL    MW4 8670   6.180   3.714   5.000  0.1154 -0.4807 -0.0557
 2225SOL     OW 8671   6.043   5.256   0.592  0.6856 -0.0158 -0.0207
 2225SOL    HW2 8672   6.011   5.297   0.511 -0.5156 -3.4594 -1.4722
 2225SOL    HW3 8673   5.971   5.199   0.620  2.9611 -2.8792  0.4826
 2225SOL    MW4 8674   6.029   5.254   0.585 -0.1302  0.8967  0.4620
 2226SOL     OW 8675   3.645   5.301   1.318 -0.1299  0.4039  0.1125
 2226SOL    HW2 8676   3.732   5.341   1.320  0.0466  0.0034  2.0851
 2226SOL    HW3 8677   3.630   5.280   1.225  0.7798  2.7804 -0.6363
 2226SOL    MW4 8678   3.654   5.304   1.306 -0.0551 -0.1276  0.4296
 2227SOL     OW 8679   2.029   5.282   5.232  0.2294  0.7695 -0.2361
 2227SOL    HW2 8680   2.091   5.300   5.303 -0.7222  0.7361  0.6343
 2227SOL    HW3 8681   2.037   5.189   5.215 -0.4739  0.5070  0.7704
 2227SOL    MW4 8682   2.038   5.272   5.239 -0.1488 -0.4707  0.9786
 2228SOL     OW 8683   2.469   2.294   6.009 -0.4800  0.9142  0.1675
 2228SOL    HW2 8684   2.385   2.273   5.968 -0.7272  1.8046  0.2129
 2228SOL    HW3 8685   2.468   2.389   6.020  1.5491  1.3025 -2.1181
 2228SOL    MW4 8686   2.458   2.303   6.005 -0.2821  0.1515  0.1050
 2229SOL     OW 8687   1.215   3.358   1.000  0.0267  0.0725 -0.1748
 2229SOL    HW2 8688   1.268   3.280   1.010  1.3702  0.9216 -0.4006
 2229SOL    HW3 8689   1.129   3.334   1.035 -0.0340 -1.9343 -1.5620
 2229SOL    MW4 8690   1.211   3.345   1.006  0.1876  0.4230  0.3086
 2230SOL     OW 8691   3.526   4.127   2.550 -0.4070 -0.2351 -0.7771
 2230SOL    HW2 8692   3.521   4.032   2.563 -1.5074 -0.2801 -1.4673
 2230SOL    HW3 8693   3.582   4.138   2.473  1.1260 -0.2251  0.2910
 2230SOL    MW4 8694   3.533   4.116   2.542 -0.0861 -0.2755 -0.4560
 2231SOL     OW 8695   2.024   6.249   4.820  0.0235 -0.3529  0.2418
 2231SOL    HW2 8696   1.938   6.260   4.779 -0.5914  0.0255  1.5733
 2231SOL    HW3 8697   2.013   6.284   4.909  1.7437  0.3662  0.2218
 2231SOL    MW4 8698   2.011   6.255   4.827  0.2415 -0.6245  0.1514
 2232SOL     OW 8699   1.498   3.150   3.094  0.5406 -0.2563  0.2021
 2232SOL    HW2 8700   1.579   3.188   3.059 -0.5468  1.6519 -0.3941
 2232SOL    HW3 8701   1.430   3.178   3.033 -0.5191 -2.3752  0.3313
 2232SOL    MW4 8702   1.500   3.159   3.081 -0.7572 -0.1715 -0.5538
 2233SOL     OW 8703   1.907   1.109   5.591  0.3977 -0.0734  0.2278
 2233SOL    HW2 8704   1.963   1.035   5.616  1.0773 -0.7270 -2.7766
 2233SOL    HW3 8705   1.968   1.172   5.552 -0.3424  1.5759  1.6306
 2233SOL    MW4 8706   1.923   1.108   5.589 -0.7448  0.3984  0.1667
 2234SOL     OW 8707   3.918   5.272   0.097 -0.8607 -0.6398 -0.6855
 2234SOL    HW2 8708   3.844   5.278   0.036 -0.2346  1.4813 -1.3227
 2234SOL    HW3 8709   3.923   5.359   0.137  1.5063 -0.5674 -0.9816
 2234SOL    MW4 8710   3.909   5.284   0.094 -0.3541 -0.3732  0.2118
 2235SOL     OW 8711   5.767   5.597   4.965 -0.1484 -0.2748  0.3503
 2235SOL    HW2 8712   5.851   5.638   4.989  0.3848 -0.3799 -1.2372
 2235SOL    HW3 8713   5.748   5.631   4.878 -0.3689 -2.3460 -0.4544
 2235SOL    MW4 8714   5.776   5.607   4.957 -0.6876 -0.2149  0.0014
 2236SOL     OW 8715   3.565   5.841   6.073  0.2202  0.3041 -0.1363
 2236SOL    HW2 8716   3.497   5.908   6.080 -0.6253 -0.5322 -0.2300
 2236SOL    HW3 8717   3.644   5.885   6.105  0.2682  2.1388 -2.5383
 2236SOL    MW4 8718   3.566   5.856   6.078  0.6761 -0.1207 -0.0268
 2237SOL     OW 8719   4.904   1.597   5.085 -0.7616  0.3658 -0.2127
 2237SOL    HW2 8720   4.911   1.691   5.099 -2.6747  0.8514 -1.9588
 2237SOL    HW3 8721   4.809   1.581   5.078 -0.4983 -1.7266  0.2041
 2237SOL    MW4 8722   4.892   1.607   5.086  0.1302  0.1032  0.1581
 2238SOL     OW 8723   6.227   2.080   4.578  0.2312  0.0931  0.4399
 2238SOL    HW2 8724   6.262   2.060   4.665  0.2639 -0.5005  0.2982
 2238SOL    HW3 8725   6.303   2.110   4.528  0.4970 -0.9105  0.2196
 2238SOL    MW4 8726   6.242   2.081   4.583  0.6254 -0.1770  0.1883
 2239SOL     OW 8727   0.996   5.168   0.236 -0.1054  0.5232  0.0155
 2239SOL    HW2 8728   0.906   5.158   0.208 -0.6564  1.0330  1.5022
 2239SOL    HW3 8729   1.004   5.261   0.260 -0.0545 -0.0678  2.5711
 2239SOL    MW4 8730   0.985   5.179   0.236  0.2260 -0.2392 -0.1317
 2240SOL     OW 8731   2.703   0.373   6.110  0.1726 -0.7476 -0.0415
 2240SOL    HW2 8732   2.642   0.428   6.160  0.7673 -0.0285 -0.0807
 2240SOL    HW3 8733   2.678   0.283   6.130 -0.7672 -0.4607  0.1025
 2240SOL    MW4 8734   2.692   0.369   6.119 -0.2179 -0.0415 -0.2118
 2241SOL     OW 8735   2.007   3.688   0.598 -0.3372 -0.8559 -0.5687
 2241SOL    HW2 8736   1.918   3.718   0.582  0.0929  1.8521  1.4889
 2241SOL    HW3 8737   2.048   3.689   0.511 -2.0416 -1.3267 -1.4191
 2241SOL    MW4 8738   2.001   3.692   0.584 -0.7632  0.3765  0.3901
 2242SOL     OW 8739   1.518   0.212   2.461  0.1277  0.3793  0.3164
 2242SOL    HW2 8740   1.497   0.305   2.456 -0.1729  0.2845 -0.2608
 2242SOL    HW3 8741   1.500   0.178   2.373 -1.4052 -0.5655  0.9643
 2242SOL    MW4 8742   1.513   0.219   2.449 -0.4293 -0.1777  0.0211
 2243SOL     OW 8743   3.375   0.973   4.386 -0.6324  0.3457 -0.0971
 2243SOL    HW2 8744   3.439   0.973   4.457 -1.2071 -1.7862  0.4929
 2243SOL    HW3 8745   3.297   0.933   4.424 -1.0259 -0.6659 -1.8713
 2243SOL    MW4 8746   3.373   0.968   4.401  0.1799 -0.0475 -0.2424
 2244SOL     OW 8747   5.639   1.214   5.012  0.3399 -0.0068  0.3581
 2244SOL    HW2 8748   5.568   1.278   5.018 -0.3244 -0.8357  2.4162
 2244SOL    HW3 8749   5.596   1.129   5.025  1.5576 -0.6084  0.6092
 2244SOL    MW4 8750   5.624   1.211   5.015 -0.5034 -0.3119 -0.6708
 2245SOL     OW 8751   1.349   5.081   0.200 -0.0002  0.0054 -0.1986
 2245SOL    HW2 8752   1.304   5.149   0.150 -0.7429  0.7732  1.4352
 2245SOL    HW3 8753   1.278   5.024   0.230  0.3086  0.1163  0.7728
 2245SOL    MW4 8754   1.334   5.082   0.197 -0.1655  0.1993  0.1301
 2246SOL     OW 8755   3.911   3.669   0.402  0.5279  0.4263 -0.3500
 2246SOL    HW2 8756   3.954   3.596   0.447  0.2890  1.4559  1.6565
 2246SOL    HW3 8757   3.818   3.648   0.407  0.4483  0.9356  0.3800
 2246SOL    MW4 8758   3.905   3.656   0.408 -0.1301  0.2354  0.0144
 2247SOL     OW 8759   0.961   4.000   2.579  0.0932 -0.4627 -0.0606
 2247SOL    HW2 8760   1.005   4.034   2.502 -0.4922  0.6841  0.0900
 2247SOL    HW3 8761   1.000   3.913   2.593  2.2130  0.4377  0.0053
 2247SOL    MW4 8762   0.972   3.993   2.571 -0.0851  0.4800 -0.1053
 2248SOL     OW 8763   2.248   4.845   6.247 -0.7948  0.0245  0.3279
 2248SOL    HW2 8764   2.274   4.843   6.155  0.1670 -1.8524  0.5914
 2248SOL    HW3 8765   2.171   4.901   6.249  0.1239  1.4630 -1.3530
 2248SOL    MW4 8766   2.241   4.852   6.235 -0.1308 -0.6911  0.3867
 2249SOL     OW 8767   4.978   2.822   5.267 -0.5852  0.5515 -0.1386
 2249SOL    HW2 8768   4.925   2.901   5.263 -0.9319  0.3799  0.8159
 2249SOL    HW3 8769   4.938   2.762   5.204  0.1125  1.3687 -1.4096
 2249SOL    MW4 8770   4.966   2.824   5.258 -0.2668  0.1894  1.0427
 2250SOL     OW 8771   3.500   1.907   6.000 -0.3801 -0.2212 -0.6337
 2250SOL    HW2 8772   3.556   1.965   5.948 -0.0771  1.2922  1.2897
 2250SOL    HW3 8773   3.517   1.820   5.964  1.7369  0.4326 -1.4023
 2250SOL    MW4 8774   3.510   1.903   5.988 -0.2106  0.1551  0.6568
 2251SOL     OW 8775   1.458   4.197   2.017 -0.2009 -0.5942 -0.2814
 2251SOL    HW2 8776   1.497   4.148   1.945  0.5494  1.7135 -1.5193
 2251SOL    HW3 8777   1.372   4.223   1.985  0.5710  1.4142 -0.8777
 2251SOL    MW4 8778   1.452   4.194   2.004  0.8261 -0.1232  0.1022
 2252SOL     OW 8779   1.317   0.793   5.536  0.2354 -0.0167  0.6342
 2252SOL    HW2 8780   1.350   0.706   5.517  0.9517  0.5972 -1.1773
 2252SOL    HW3 8781   1.394   0.841   5.569  0.6544  0.7445 -1.3131
 2252SOL    MW4 8782   1.332   0.788   5.538  0.2367 -0.0638 -0.0999
 2253SOL     OW 8783   3.032   6.388   3.532  0.1849  0.8595  0.1919
 2253SOL    HW2 8784   3.011   6.405   3.623 -0.9762  1.0212 -0.0775
 2253SOL    HW3 8785   3.019   6.472   3.488  0.1224  0.6459 -0.2084
 2253SOL    MW4 8786   3.027   6.401   3.538  0.7669 -0.1812 -0.1255
 2254SOL     OW 8787   5.976   2.660   1.644 -0.9593 -0.4108  0.5066
 2254SOL    HW2 8788   6.026   2.668   1.563 -0.9719 -2.4181  0.2317
 2254SOL    HW3 8789   6.043   2.647   1.712 -1.0152 -1.8740  0.3175
 2254SOL    MW4 8790   5.992   2.659   1.642 -0.5143 -0.2889 -0.0504
 2255SOL     OW 8791   0.937   1.910   5.575 -0.1941  0.5606 -0.0723
 2255SOL    HW2 8792   0.969   1.820   5.561 -0.4687  0.3229  0.8048
 2255SOL    HW3 8793   1.016   1.964   5.568  0.5399 -0.0563  2.4261
 2255SOL    MW4 8794   0.952   1.905   5.572  0.1618 -0.2894 -0.3521
 2256SOL     OW 8795   0.424   3.204   0.927 -0.2450 -0.0142  0.0316
 2256SOL    HW2 8796   0.368   3.251   0.865 -0.5186 -1.7312 -1.1039
 2256SOL    HW3 8797   0.511   3.207   0.888  0.2842  1.6542  1.2220
 2256SOL    MW4 8798   0.428   3.210   0.914 -0.1641 -0.9414  0.0504
 2257SOL     OW 8799   4.304   1.783   5.224 -0.4111 -0.2417  0.6295
 2257SOL    HW2 8800   4.342   1.702   5.190 -2.6288 -0.8651 -0.5861
 2257SOL    HW3 8801   4.215   1.784   5.189 -0.5430  2.6241  0.8018
 2257SOL    MW4 8802   4.297   1.772   5.215  0.3514  0.1757  0.3926
 2258SOL     OW 8803   3.452   1.629   2.214 -0.3412 -0.4711 -0.7621
 2258SOL    HW2 8804   3.430   1.595   2.300 -0.7802  0.6455 -0.4064
 2258SOL    HW3 8805   3.370   1.627   2.165  0.0471 -1.7087 -1.3816
 2258SOL    MW4 8806   3.438   1.624   2.219 -0.5632 -0.5145  0.9930
 2259SOL     OW 8807   2.837   2.974   1.775  0.1597  0.2369 -0.3509
 2259SOL    HW2 8808   2.916   2.968   1.722  0.5383 -2.1167  0.3597
 2259SOL    HW3 8809   2.853   2.915   1.849 -0.6835  2.7262  1.9679
 2259SOL    MW4 8810   2.849   2.965   1.778 -0.3074  0.0280  0.1240
 2260SOL     OW 8811   3.612   2.424   0.349  0.1517 -0.1978 -0.3683
 2260SOL    HW2 8812   3.561   2.498   0.384  0.8872 -0.6790  1.8532
 2260SOL    HW3 8813   3.679   2.465   0.294  0.8227  0.8633  1.1766
 2260SOL    MW4 8814   3.614   2.439   0.346 -0.1935  0.2730 -0.0833
 2261SOL     OW 8815   0.215   5.432   1.680 -0.1228 -0.1809 -0.4726
 2261SOL    HW2 8816   0.281   5.482   1.729  0.1387  0.0842 -1.0938
 2261SOL    HW3 8817   0.137   5.436   1.736  0.0168  0.5618 -0.3142
 2261SOL    MW4 8818   0.213   5.439   1.694 -0.2044  0.1162  0.3148
 2262SOL     OW 8819   1.415   1.387   3.452 -0.0010 -0.0999  0.3347
 2262SOL    HW2 8820   1.325   1.418   3.460 -0.1550 -0.9245  2.9804
 2262SOL    HW3 8821   1.407   1.297   3.420  0.0456  0.4820 -1.3709
 2262SOL    MW4 8822   1.402   1.379   3.449  0.0276  0.2083 -0.2325
 2263SOL     OW 8823   2.878   5.144   0.199  0.2857 -0.4267  0.0731
 2263SOL    HW2 8824   2.891   5.076   0.132 -0.1567 -1.1849  0.7517
 2263SOL    HW3 8825   2.871   5.225   0.149  0.0493 -0.9728 -0.8028
 2263SOL    MW4 8826   2.879   5.146   0.183  0.1648 -0.2297 -0.2121
 2264SOL     OW 8827   3.136   1.606   2.530 -0.3472 -0.4659  0.4133
 2264SOL    HW2 8828   3.064   1.584   2.590 -1.2584  0.2806 -0.3891
 2264SOL    HW3 8829   3.097   1.604   2.443  0.0692  2.0600  0.1067
 2264SOL    MW4 8830   3.121   1.603   2.527 -0.8584 -0.3766  0.3239
 2265SOL     OW 8831   1.000   6.319   3.127  0.1741 -0.0124 -0.0973
 2265SOL    HW2 8832   1.032   6.363   3.049  0.5319  1.1330  0.6804
 2265SOL    HW3 8833   0.906   6.337   3.128  0.3524  0.9631  0.3373
 2265SOL    MW4 8834   0.992   6.327   3.117  0.3988  0.1341  0.1513
 2266SOL     OW 8835   1.801   1.568   3.451 -0.1821  0.3005  0.5016
 2266SOL    HW2 8836   1.853   1.562   3.531  0.3053 -0.8167  0.1210
 2266SOL    HW3 8837   1.751   1.487   3.449  1.2770 -0.6234 -1.3017
 2266SOL    MW4 8838   1.801   1.557   3.461  0.5605  0.3260  0.4576
 2267SOL     OW 8839   4.817   1.794   1.672  0.2333  0.0785 -0.0579
 2267SOL    HW2 8840   4.800   1.840   1.590 -0.2521 -0.9269 -0.5448
 2267SOL    HW3 8841   4.890   1.735   1.652  0.7669  0.5245  0.5219
 2267SOL    MW4 8842   4.824   1.792   1.658  0.3027 -0.5562 -0.8190
 2268SOL     OW 8843   2.016   1.139   6.099  0.1444  0.0907  0.1920
 2268SOL    HW2 8844   2.070   1.213   6.069  0.6526  0.2100  1.3547
 2268SOL    HW3 8845   1.926   1.167   6.082  0.3655  0.7161  0.0268
 2268SOL    MW4 8846   2.012   1.153   6.093 -0.1486  0.4312 -0.2720
 2269SOL     OW 8847   0.177   0.479   0.187 -0.0539  0.1153 -0.7630
 2269SOL    HW2 8848   0.264   0.509   0.210  0.5550 -1.6074 -0.6581
 2269SOL    HW3 8849   0.120   0.518   0.254  0.6201  1.2275 -0.8168
 2269SOL    MW4 8850   0.181   0.488   0.199 -0.2701  0.2603 -0.4959
 2270SOL     OW 8851   3.706   5.576   5.235  0.0080 -0.0661 -0.0221
 2270SOL    HW2 8852   3.796   5.602   5.217  0.1265 -1.1690 -1.1370
 2270SOL    HW3 8853   3.709   5.480   5.239 -1.1675 -0.1376 -0.4119
 2270SOL    MW4 8854   3.718   5.567   5.234  0.2067  0.3462  0.3604
 2271SOL     OW 8855   1.236   3.488   1.625 -0.0586 -0.1516 -0.1499
 2271SOL    HW2 8856   1.157   3.435   1.624 -0.2327  0.0512  1.1369
 2271SOL    HW3 8857   1.302   3.433   1.583 -0.8826 -0.2928 -1.3003
 2271SOL    MW4 8858   1.235   3.474   1.619  0.2192  0.3410  0.0009
 2272SOL     OW 8859   0.560   3.161   6.238  0.3479  0.4622  0.0503
 2272SOL    HW2 8860   0.505   3.235   6.263 -0.8610 -0.0389 -1.0464
 2272SOL    HW3 8861   0.513   3.084   6.269  1.0517  0.0768  0.1916
 2272SOL    MW4 8862   0.547   3.161   6.246  0.2989 -0.4811  0.0736
 2273SOL     OW 8863   2.229   5.596   5.176  0.5169 -0.3713  0.3384
 2273SOL    HW2 8864   2.226   5.664   5.108 -0.6839 -0.7311  0.0122
 2273SOL    HW3 8865   2.188   5.637   5.252  1.1910 -0.2193  0.6235
 2273SOL    MW4 8866   2.223   5.611   5.177 -0.4588  0.2649  0.3495
 2274SOL     OW 8867   4.939   5.853   2.920  0.1947 -0.3541 -0.3772
 2274SOL    HW2 8868   4.961   5.790   2.851  1.9412 -1.2015  0.8791
 2274SOL    HW3 8869   4.856   5.822   2.956 -0.8985  0.2715 -2.2334
 2274SOL    MW4 8870   4.931   5.841   2.916 -0.1530 -0.1420 -0.6130
 2275SOL     OW 8871   3.663   0.724   0.478 -0.0397  0.5918 -0.3628
 2275SOL    HW2 8872   3.670   0.647   0.535  0.8966 -0.5404 -1.9402
 2275SOL    HW3 8873   3.594   0.777   0.519  0.6785 -0.0717  1.8904
 2275SOL    MW4 8874   3.655   0.721   0.491 -0.3552  0.5341 -0.3311
 2276SOL     OW 8875   0.034   0.935   3.656  0.0927 -0.6501  0.4860
 2276SOL    HW2 8876  -0.004   0.919   3.743 -0.5361  0.5173  0.4429
 2276SOL    HW3 8877  -0.002   1.019   3.629  0.9151 -0.6180 -0.5750
 2276SOL    MW4 8878   0.024   0.944   3.664 -0.2687 -0.1583 -0.1128
 2277SOL     OW 8879   2.664   0.326   3.238  0.1227 -0.3223  0.4251
 2277SOL    HW2 8880   2.596   0.390   3.221 -0.6392 -1.4161 -0.8728
 2277SOL    HW3 8881   2.688   0.293   3.152  1.6456 -0.6312  0.9342
 2277SOL    MW4 8882   2.658   0.330   3.225  0.7884 -0.7768  0.5618
 2278SOL     OW 8883   0.950   3.375   4.230 -0.0460  0.1958  0.1354
 2278SOL    HW2 8884   0.932   3.388   4.137  0.9741  0.8800  0.0134
 2278SOL    HW3 8885   0.968   3.281   4.237 -2.3940 -0.3218  0.0904
 2278SOL    MW4 8886   0.950   3.364   4.219 -0.3053 -0.3290  0.1230
 2279SOL     OW 8887   0.449   2.309   1.709  0.3688 -0.2939 -0.4330
 2279SOL    HW2 8888   0.427   2.403   1.712  1.7970  0.0579 -0.3607
 2279SOL    HW3 8889   0.426   2.282   1.620  0.8477  0.3670 -0.7653
 2279SOL    MW4 8890   0.443   2.318   1.697  0.3129  0.4212 -0.0986
 2280SOL     OW 8891   4.832   0.217   5.373 -0.3787  0.2898  0.1927
 2280SOL    HW2 8892   4.919   0.239   5.341 -1.0393  0.8096 -1.3401
 2280SOL    HW3 8893   4.783   0.299   5.368 -1.0604 -0.0780  0.7019
 2280SOL    MW4 8894   4.837   0.231   5.368  0.4909 -0.3745  0.1607
 2281SOL     OW 8895   6.124   1.326   0.050 -0.1556  0.3123  0.5231
 2281SOL    HW2 8896   6.053   1.262   0.044  2.7450 -3.2192  0.4088
 2281SOL    HW3 8897   6.148   1.343  -0.041 -0.0426  0.4600  0.5802
 2281SOL    MW4 8898   6.118   1.320   0.037  0.3351 -0.6690 -0.1588
 2282SOL     OW 8899   2.420   1.785   3.614 -0.1348 -0.4509  0.4639
 2282SOL    HW2 8900   2.433   1.723   3.686  1.5711  0.0995  0.6817
 2282SOL    HW3 8901   2.502   1.835   3.610 -1.1365  1.2420 -0.2318
 2282SOL    MW4 8902   2.433   1.784   3.623 -0.3804  0.8823 -0.1488
 2283SOL     OW 8903   5.431   5.570   4.687  0.0745  1.0331  0.3424
 2283SOL    HW2 8904   5.374   5.580   4.763  1.6891 -1.2072  1.9498
 2283SOL    HW3 8905   5.380   5.516   4.627 -0.2230  0.6483  0.9320
 2283SOL    MW4 8906   5.417   5.564   4.689 -0.0700 -0.2052  0.0018
 2284SOL     OW 8907   2.308   0.665   2.893  0.1183  0.0174  0.3461
 2284SOL    HW2 8908   2.309   0.705   2.980  1.8566 -0.2627  0.4915
 2284SOL    HW3 8909   2.265   0.581   2.906  0.2190  0.0463  0.9072
 2284SOL    MW4 8910   2.302   0.659   2.906  0.2129 -0.4400  0.4556
 2285SOL     OW 8911   4.476   1.691   2.341  0.0095  0.0312 -0.1208
 2285SOL    HW2 8912   4.481   1.740   2.423 -0.0129  1.4133 -0.9248
 2285SOL    HW3 8913   4.382   1.686   2.321  0.0602  0.3287 -0.4339
 2285SOL    MW4 8914   4.464   1.697   2.350 -0.0919  0.4476  0.1239
 2286SOL     OW 8915   6.281   0.305   0.297 -0.1866 -0.1312 -0.3661
 2286SOL    HW2 8916   6.213   0.317   0.362  0.4011 -1.3007  0.4970
 2286SOL    HW3 8917   6.303   0.212   0.302  1.9590  0.3356 -0.1027
 2286SOL    MW4 8918   6.275   0.294   0.306  0.0427  0.4555 -0.5023
 2287SOL     OW 8919   3.245   3.146   3.636 -0.2739 -0.0854  0.2918
 2287SOL    HW2 8920   3.235   3.186   3.722  0.2359 -0.7730  0.6821
 2287SOL    HW3 8921   3.186   3.071   3.637  0.9077 -1.0493  0.6583
 2287SOL    MW4 8922   3.236   3.141   3.647  0.1480 -0.3652  0.4829
 2288SOL     OW 8923   4.321   3.723   1.303  0.1770 -0.4482 -0.1179
 2288SOL    HW2 8924   4.354   3.700   1.390  1.5795 -1.6225 -0.9256
 2288SOL    HW3 8925   4.397   3.716   1.246 -0.5878  0.9312 -1.3530
 2288SOL    MW4 8926   4.335   3.719   1.307 -0.0626  1.0351  0.3678
 2289SOL     OW 8927   1.882   0.938   2.177 -0.5536 -0.4762  0.7913
 2289SOL    HW2 8928   1.788   0.951   2.179 -0.2479  3.9396 -1.5242
 2289SOL    HW3 8929   1.916   1.000   2.241  0.8225 -1.0496  0.6483
 2289SOL    MW4 8930   1.874   0.948   2.185  0.4147  0.3509 -0.2837
 2290SOL     OW 8931   5.112   5.240   4.489  0.4161  0.1538 -0.7558
 2290SOL    HW2 8932   5.144   5.326   4.518  3.0204 -1.5823  2.2362
 2290SOL    HW3 8933   5.180   5.207   4.431  1.4662 -1.3001  1.1617
 2290SOL    MW4 8934   5.125   5.247   4.485  0.0077 -0.2761 -0.2382
 2291SOL     OW 8935   4.493   0.032   0.056  0.1163  0.3006  0.2132
 2291SOL    HW2 8936   4.504  -0.032   0.126 -1.2454  0.6870  0.8034
 2291SOL    HW3 8937   4.484   0.116   0.101 -3.4587  0.2660 -0.1616
 2291SOL    MW4 8938   4.494   0.034   0.071 -0.0918 -0.6701 -0.1487
 2292SOL     OW 8939   5.874   3.832   5.962  0.4383 -0.1987 -0.3947
 2292SOL    HW2 8940   5.835   3.883   5.891 -1.3571 -0.9616 -0.0194
 2292SOL    HW3 8941   5.851   3.880   6.041 -0.5237 -1.0896 -0.1047
 2292SOL    MW4 8942   5.866   3.845   5.963 -0.0369 -0.2447 -0.0245
 2293SOL     OW 8943   4.911   4.308   4.158  0.2412 -0.0121 -0.1562
 2293SOL    HW2 8944   4.827   4.279   4.193 -0.3661  2.6936  0.8616
 2293SOL    HW3 8945   4.934   4.241   4.093 -2.2429 -1.2889  0.1506
 2293SOL    MW4 8946   4.903   4.295   4.154  0.0314 -0.0360  0.3147
 2294SOL     OW 8947   2.959   1.071   6.342 -0.4621  0.4644 -0.5754
 2294SOL    HW2 8948   3.033   1.101   6.290 -0.5513  0.6635 -0.5892
 2294SOL    HW3 8949   2.924   1.151   6.382  0.3030  0.1681  0.7194
 2294SOL    MW4 8950   2.964   1.086   6.340  0.2894 -0.7758  0.0116
 2295SOL     OW 8951   5.170   3.819   3.965 -0.2688 -0.6030 -0.0043
 2295SOL    HW2 8952   5.219   3.803   3.885  0.1356 -0.3469  0.1901
 2295SOL    HW3 8953   5.102   3.752   3.965 -1.3695  0.4364 -1.4381
 2295SOL    MW4 8954   5.167   3.808   3.955  0.7473  0.1802  1.1873
 2296SOL     OW 8955   5.262   1.361   2.600 -0.1675 -0.4575  0.6348
 2296SOL    HW2 8956   5.176   1.343   2.637 -0.1594 -0.2594  0.7501
 2296SOL    HW3 8957   5.247   1.358   2.505 -0.8302  1.9122  0.6039
 2296SOL    MW4 8958   5.248   1.358   2.592  0.3566 -0.5371 -0.8402
 2297SOL     OW 8959   3.756   1.019   5.108 -0.3105 -0.0227 -0.0013
 2297SOL    HW2 8960   3.843   1.014   5.149 -0.6375 -0.4893  0.6672
 2297SOL    HW3 8961   3.707   0.946   5.147 -1.5297  1.2162  0.9149
 2297SOL    MW4 8962   3.761   1.009   5.119  0.3527  0.1072 -0.0743
 2298SOL     OW 8963   5.830   1.669   0.579 -0.6524  0.2652 -0.4548
 2298SOL    HW2 8964   5.741   1.633   0.577 -0.8667  0.7792 -0.2753
 2298SOL    HW3 8965   5.885   1.599   0.544 -1.3576  0.6142 -2.3559
 2298SOL    MW4 8966   5.825   1.655   0.574 -0.0072  0.2718  0.1403
 2299SOL     OW 8967   4.841   3.013   0.837 -0.1503 -0.3434 -0.3535
 2299SOL    HW2 8968   4.802   3.064   0.908  0.8642  1.7295 -1.2098
 2299SOL    HW3 8969   4.919   2.974   0.876  0.2586  0.5668 -0.2461
 2299SOL    MW4 8970   4.846   3.014   0.851 -0.5237  0.1989 -0.1686
 2300SOL     OW 8971   6.171   2.291   2.685 -0.2949  0.1028  0.2669
 2300SOL    HW2 8972   6.082   2.319   2.665 -0.2381  0.7201  0.8724
 2300SOL    HW3 8973   6.169   2.267   2.778  0.3175  0.7414  0.4563
 2300SOL    MW4 8974   6.159   2.291   2.695 -0.2633 -0.2900 -0.2362
 2301SOL     OW 8975   1.696   5.258   3.875 -0.3485  0.5097  0.2247
 2301SOL    HW2 8976   1.667   5.293   3.790  0.8778 -0.5185 -0.6473
 2301SOL    HW3 8977   1.749   5.328   3.913 -1.5019  1.2602  0.5073
 2301SOL    MW4 8978   1.699   5.272   3.869  0.2721 -0.4132  0.1249
 2302SOL     OW 8979   5.857   1.946   1.159  0.6640 -0.5839  0.4895
 2302SOL    HW2 8980   5.825   2.033   1.137  0.6305 -0.9192 -0.8270
 2302SOL    HW3 8981   5.894   1.912   1.078  0.8387 -1.7373  1.0292
 2302SOL    MW4 8982   5.858   1.953   1.146  0.0891 -0.9993  0.1411
 2303SOL     OW 8983   6.251   5.488   1.179  0.4100  0.0898  0.2689
 2303SOL    HW2 8984   6.176   5.437   1.147 -0.5784 -0.9284  3.7346
 2303SOL    HW3 8985   6.324   5.426   1.179  0.7541  0.4526 -1.0039
 2303SOL    MW4 8986   6.250   5.473   1.175 -0.0488 -0.0855 -0.2181
 2304SOL     OW 8987   5.454   3.100   2.662 -0.1955  0.0954  0.4908
 2304SOL    HW2 8988   5.429   3.166   2.597 -1.0329  0.5167  1.2177
 2304SOL    HW3 8989   5.550   3.100   2.660 -0.1961  0.8336 -0.0118
 2304SOL    MW4 8990   5.463   3.109   2.653  0.7372 -0.6063 -0.7359
 2305SOL     OW 8991   3.047   1.747   4.571  0.2430 -0.4881  0.0948
 2305SOL    HW2 8992   3.034   1.747   4.476  1.7178 -1.3741 -0.1271
 2305SOL    HW3 8993   3.069   1.657   4.593  2.5299  0.2069  0.8833
 2305SOL    MW4 8994   3.048   1.735   4.561  0.1467  0.9266 -0.3118
 2306SOL     OW 8995   5.845   3.076   3.638  0.1148 -0.2138  0.3555
 2306SOL    HW2 8996   5.795   3.141   3.687  0.4164  0.6295 -0.4154
 2306SOL    HW3 8997   5.791   2.997   3.640 -1.5907  0.8186 -0.9489
 2306SOL    MW4 8998   5.831   3.074   3.644 -0.0394  0.0057 -0.6327
 2307SOL     OW 8999   5.877   5.763   2.387 -0.5752 -0.2354  0.6615
 2307SOL    HW2 9000   5.866   5.718   2.472 -0.1360  0.9848  1.3849
 2307SOL    HW3 9001   5.813   5.721   2.330  0.8738 -2.9142  0.8102
 2307SOL    MW4 9002   5.867   5.751   2.391 -0.0641  0.2513  0.2779
 2308SOL     OW 9003   4.016   5.021   4.815 -0.1377 -0.2237  0.1904
 2308SOL    HW2 9004   3.935   4.970   4.821  0.4421 -1.1416  0.5937
 2308SOL    HW3 9005   4.084   4.955   4.801  0.8891  0.1855  2.6579
 2308SOL    MW4 9006   4.014   5.006   4.814 -0.2122 -0.5720 -0.2260
 2309SOL     OW 9007   6.065   1.796   0.475  0.1884 -0.3076 -0.3618
 2309SOL    HW2 9008   5.979   1.764   0.502 -0.0435  0.8115  0.3019
 2309SOL    HW3 9009   6.121   1.781   0.551  0.6610 -1.3186 -0.9050
 2309SOL    MW4 9010   6.061   1.790   0.489  0.4115  0.3570 -0.0780
 2310SOL     OW 9011   2.721   5.742   2.830  0.5504 -0.1174 -0.0090
 2310SOL    HW2 9012   2.659   5.736   2.757 -0.1447 -0.6297  0.6032
 2310SOL    HW3 9013   2.783   5.809   2.804  0.6735 -0.7212 -1.3383
 2310SOL    MW4 9014   2.721   5.750   2.817  0.4234 -0.7500  0.3156
 2311SOL     OW 9015   3.519   1.439   3.530 -0.9164  0.2900  0.2605
 2311SOL    HW2 9016   3.530   1.361   3.476 -1.4402 -0.5040  1.2661
 2311SOL    HW3 9017   3.552   1.511   3.475 -1.9324 -0.3925 -1.3046
 2311SOL    MW4 9018   3.525   1.438   3.515 -0.0009  0.3910 -0.2171
 2312SOL     OW 9019   0.013   5.898   5.444  0.0145  0.0006  0.3329
 2312SOL    HW2 9020  -0.074   5.932   5.424  0.2520  0.4434  0.0441
 2312SOL    HW3 9021   0.005   5.804   5.432 -0.5761 -0.0252  0.8686
 2312SOL    MW4 9022   0.001   5.890   5.440 -0.1840 -0.1332  0.8104
 2313SOL     OW 9023   3.556   4.032   0.930  0.1231 -0.1933  0.2337
 2313SOL    HW2 9024   3.516   3.984   0.858 -2.0090  1.4131  0.2639
 2313SOL    HW3 9025   3.629   4.080   0.890 -1.0275  0.6738 -0.8734
 2313SOL    MW4 9026   3.561   4.032   0.915  0.0894 -0.5068  0.6716
 2314SOL     OW 9027   3.580   1.175   3.849  0.0134  0.2759 -0.5502
 2314SOL    HW2 9028   3.487   1.153   3.849  0.2722 -0.9551 -1.3834
 2314SOL    HW3 9029   3.593   1.227   3.928 -1.0442 -1.0483  0.5424
 2314SOL    MW4 9030   3.569   1.179   3.859 -0.1817 -0.4775  0.3586
 2315SOL     OW 9031   5.822   1.253   0.276  0.4926  0.5411  0.1462
 2315SOL    HW2 9032   5.886   1.190   0.307 -0.0221 -1.0025 -1.7289
 2315SOL    HW3 9033   5.802   1.225   0.186 -0.5896  2.7272 -0.3670
 2315SOL    MW4 9034   5.828   1.241   0.268  0.2154 -0.2494  0.3887
 2316SOL     OW 9035   0.888   3.208   1.812 -0.2700  0.2323 -0.1030
 2316SOL    HW2 9036   0.792   3.203   1.806 -0.2596 -1.2894  0.4818
 2316SOL    HW3 9037   0.905   3.285   1.866 -1.2329 -0.1927  0.8416
 2316SOL    MW4 9038   0.877   3.217   1.818 -0.1347 -0.1892 -0.2465
 2317SOL     OW 9039   3.696   0.145   6.077 -0.0409 -0.4297 -0.4904
 2317SOL    HW2 9040   3.708   0.081   6.007  0.4282  0.0379 -0.8512
 2317SOL    HW3 9041   3.608   0.181   6.062  1.3074  2.2054 -3.0481
 2317SOL    MW4 9042   3.686   0.141   6.066 -0.8589 -0.2394 -0.3958
 2318SOL     OW 9043   4.154   3.922   1.172  0.4683  0.0253  0.1841
 2318SOL    HW2 9044   4.176   4.002   1.220 -0.3965  0.2874  0.1623
 2318SOL    HW3 9045   4.201   3.853   1.217  0.7577  0.4676  0.5645
 2318SOL    MW4 9046   4.163   3.924   1.184 -0.0643 -0.2815  0.5984
 2319SOL     OW 9047   5.631   0.354   1.152  0.5567  0.6845  0.1170
 2319SOL    HW2 9048   5.656   0.290   1.085 -2.1433  0.2207 -0.5840
 2319SOL    HW3 9049   5.611   0.433   1.102  1.0595  1.1739  0.6827
 2319SOL    MW4 9050   5.631   0.356   1.136  0.6856 -0.4130 -0.3247
 2320SOL     OW 9051   1.987   6.209   0.865 -0.1628 -0.3954 -0.2547
 2320SOL    HW2 9052   2.005   6.303   0.869  0.0518 -0.4724  0.7050
 2320SOL    HW3 9053   2.058   6.169   0.914 -0.9315 -0.9647  0.4123
 2320SOL    MW4 9054   1.999   6.216   0.872 -0.5050  0.8585  0.5222
 2321SOL     OW 9055   4.518   1.017   4.193 -0.1178  0.0857  0.5256
 2321SOL    HW2 9056   4.607   0.982   4.195 -0.4312 -0.6959  1.1012
 2321SOL    HW3 9057   4.528   1.105   4.156  0.6231 -0.7917 -1.5280
 2321SOL    MW4 9058   4.531   1.024   4.188 -0.9261  0.3414 -0.2138
 2322SOL     OW 9059   4.460   4.345   4.057 -0.4967  0.4319 -0.2849
 2322SOL    HW2 9060   4.510   4.323   4.136 -1.1039  0.2719  0.0649
 2322SOL    HW3 9061   4.392   4.405   4.088 -1.6460 -0.7655 -0.4023
 2322SOL    MW4 9062   4.457   4.350   4.072  0.3644 -0.0053 -0.4391
 2323SOL     OW 9063   6.049   5.113   0.967  0.2234  0.0345 -0.1828
 2323SOL    HW2 9064   6.105   5.039   0.945 -2.0582 -1.6168 -0.8730
 2323SOL    HW3 9065   5.963   5.090   0.931 -1.3537  1.6536  2.2026
 2323SOL    MW4 9066   6.045   5.101   0.959  0.2330 -0.9166  0.2984
 2324SOL     OW 9067   4.741   3.386   4.963 -0.0534 -0.4686  0.0104
 2324SOL    HW2 9068   4.687   3.450   4.916  0.4361  1.0196  1.3666
 2324SOL    HW3 9069   4.828   3.425   4.966 -0.1545 -0.2363  2.4753
 2324SOL    MW4 9070   4.745   3.399   4.958 -0.4512 -0.2274  0.0255
 2325SOL     OW 9071   1.229   6.283   5.956 -0.8563 -0.3238  0.0832
 2325SOL    HW2 9072   1.138   6.255   5.954 -0.8237 -0.4242 -0.0326
 2325SOL    HW3 9073   1.279   6.202   5.946 -0.7285  0.0621 -5.4153
 2325SOL    MW4 9074   1.224   6.269   5.955  0.2958 -0.3606 -0.1498
 2326SOL     OW 9075   4.258   3.018   6.092  0.5303  0.5488  0.5700
 2326SOL    HW2 9076   4.206   3.094   6.118  1.2260  1.0756  0.4770
 2326SOL    HW3 9077   4.340   3.028   6.142 -0.0530 -1.1173  1.9407
 2326SOL    MW4 9078   4.262   3.029   6.102 -0.1834 -0.0401  0.4093
 2327SOL     OW 9079   4.318   3.903   5.300 -0.4750 -0.6764  0.1468
 2327SOL    HW2 9080   4.341   3.814   5.327  1.9930 -0.1449  0.0645
 2327SOL    HW3 9081   4.356   3.959   5.367 -0.3866  0.3745 -0.7507
 2327SOL    MW4 9082   4.326   3.899   5.312  0.4470  0.0723 -0.0136
 2328SOL     OW 9083   2.694   6.216   1.598 -0.6119 -0.1618 -0.3744
 2328SOL    HW2 9084   2.663   6.300   1.633  3.0958  0.6915  1.3264
 2328SOL    HW3 9085   2.656   6.150   1.656  0.3726  0.7996  1.4605
 2328SOL    MW4 9086   2.685   6.218   1.610 -0.4103  0.2287  0.4531
 2329SOL     OW 9087   0.114   1.052   3.922 -0.1152  0.2916 -0.6744
 2329SOL    HW2 9088   0.138   1.117   3.988 -1.3920 -1.6955  1.9188
 2329SOL    HW3 9089   0.036   1.089   3.880 -1.3670  0.1101  1.3885
 2329SOL    MW4 9090   0.107   1.065   3.925 -0.0063  0.7439  0.3895
 2330SOL     OW 9091   6.223   4.953   4.035  0.2465 -0.1123  0.0305
 2330SOL    HW2 9092   6.203   4.982   3.946  0.6074 -0.1475 -0.0653
 2330SOL    HW3 9093   6.161   4.882   4.052 -1.2022  1.2430  0.5775
 2330SOL    MW4 9094   6.212   4.947   4.025  0.3167 -0.2761 -0.6647
 2331SOL     OW 9095   4.627   2.147   1.125  0.2680 -0.3457  0.1779
 2331SOL    HW2 9096   4.652   2.232   1.090  0.7559 -0.2433  0.7431
 2331SOL    HW3 9097   4.691   2.086   1.088  0.7876 -0.2364  0.8606
 2331SOL    MW4 9098   4.639   2.150   1.116  0.0643 -0.1125  0.1357
 2332SOL     OW 9099   3.075   1.334   2.376 -0.0538 -0.5610 -0.0384
 2332SOL    HW2 9100   2.987   1.371   2.381  1.0564  2.4249 -0.8105
 2332SOL    HW3 9101   3.100   1.345   2.285  1.7253  0.2022  0.5074
 2332SOL    MW4 9102   3.067   1.340   2.365  0.5411 -0.1311  0.3351
 2333SOL     OW 9103   0.818   1.188   6.051 -0.3103 -0.3128  0.0811
 2333SOL    HW2 9104   0.868   1.109   6.068 -4.7792 -3.5012  0.2720
 2333SOL    HW3 9105   0.832   1.207   5.959  1.7474 -0.4995  0.3103
 2333SOL    MW4 9106   0.826   1.180   6.041  0.4660 -0.0930  0.2950
 2334SOL     OW 9107   5.944   5.162   4.291  0.1402  0.0224  0.2879
 2334SOL    HW2 9108   5.869   5.139   4.237 -0.8691 -1.2293  2.0790
 2334SOL    HW3 9109   5.931   5.254   4.315  0.1627  0.3327 -0.8711
 2334SOL    MW4 9110   5.933   5.171   4.287 -0.3434 -0.0148 -0.2830
 2335SOL     OW 9111  -0.005   4.163   4.212  0.2187  0.1976  0.0851
 2335SOL    HW2 9112   0.079   4.208   4.199 -0.2080  1.4619  1.4208
 2335SOL    HW3 9113  -0.040   4.151   4.124  1.3112  0.5909 -0.4286
 2335SOL    MW4 9114   0.002   4.167   4.199 -0.1337  0.1199  0.0236
 2336SOL     OW 9115   6.224   3.076   5.093 -0.3977 -0.2251  0.3011
 2336SOL    HW2 9116   6.294   3.016   5.119 -1.1716 -1.4239 -0.3225
 2336SOL    HW3 9117   6.164   3.076   5.168  0.7440  1.6298  1.2897
 2336SOL    MW4 9118   6.225   3.068   5.106 -0.3930  0.2871 -0.3518
 2337SOL     OW 9119   3.476   2.442   6.054 -0.4215 -0.3711  0.7437
 2337SOL    HW2 9120   3.448   2.384   5.984  0.0228 -0.9669  1.0496
 2337SOL    HW3 9121   3.453   2.530   6.024  1.0761 -0.4654 -0.8017
 2337SOL    MW4 9122   3.469   2.446   6.041 -0.1085  0.1727 -0.3923
 2338SOL     OW 9123   4.674   5.273   2.588 -0.0337  0.5722 -0.1236
 2338SOL    HW2 9124   4.604   5.294   2.650 -1.4426 -2.0355 -0.6907
 2338SOL    HW3 9125   4.631   5.271   2.503  1.4140  1.8440 -0.9502
 2338SOL    MW4 9126   4.659   5.276   2.585 -0.2298 -0.4943 -0.4146
 2339SOL     OW 9127   2.158   1.399   6.252 -0.1578 -0.1919 -0.2968
 2339SOL    HW2 9128   2.142   1.421   6.161  1.3812 -0.1256 -0.5673
 2339SOL    HW3 9129   2.083   1.344   6.276 -2.1244  2.1763 -0.6829
 2339SOL    MW4 9130   2.146   1.394   6.243  0.5358  0.1638  0.1108
 2340SOL     OW 9131   1.978   1.480   2.751  0.1407 -0.2957  0.6314
 2340SOL    HW2 9132   1.995   1.437   2.835 -0.1043  0.4440  1.0672
 2340SOL    HW3 9133   2.058   1.529   2.733  1.1474 -2.2891 -0.7496
 2340SOL    MW4 9134   1.991   1.481   2.760  0.3241 -0.0401  0.5547
 2341SOL     OW 9135   5.480   3.950   2.146 -0.3461 -0.1088 -0.0241
 2341SOL    HW2 9136   5.537   3.950   2.223 -0.7261  2.3151  0.3404
 2341SOL    HW3 9137   5.532   3.990   2.077 -1.2493  1.3268  0.0756
 2341SOL    MW4 9138   5.494   3.955   2.147  0.3204  0.0806 -0.3126
 2342SOL     OW 9139   5.264   5.210   3.239 -0.2623 -0.5884  0.0763
 2342SOL    HW2 9140   5.324   5.151   3.195 -2.0919 -1.2906 -1.6053
 2342SOL    HW3 9141   5.237   5.163   3.318 -0.3461 -1.2415 -0.3382
 2342SOL    MW4 9142   5.268   5.196   3.244  0.2950  0.9611  0.2813
 2343SOL     OW 9143   4.789   4.341   5.118 -0.1320  0.2832  0.2009
 2343SOL    HW2 9144   4.781   4.435   5.105 -3.4511  0.1373  0.3019
 2343SOL    HW3 9145   4.699   4.308   5.114  0.9251 -2.9669 -0.2739
 2343SOL    MW4 9146   4.776   4.349   5.116  0.9449 -0.2864  0.8875
 2344SOL     OW 9147   5.417   5.319   5.243  0.3017  0.1856 -0.1590
 2344SOL    HW2 9148   5.509   5.294   5.233 -0.0093 -1.6758  1.1529
 2344SOL    HW3 9149   5.373   5.239   5.272 -1.8453  0.9111 -1.1999
 2344SOL    MW4 9150   5.424   5.305   5.246 -0.6522  0.5644 -0.3807
 2345SOL     OW 9151   5.863   1.036   4.279 -0.6122  0.6109  0.5407
 2345SOL    HW2 9152   5.816   0.980   4.217  0.0162 -0.3936  0.9399
 2345SOL    HW3 9153   5.923   1.088   4.225  0.7799 -1.0918  0.3649
 2345SOL    MW4 9154   5.865   1.036   4.264  1.1400  0.8215  0.4629
 2346SOL     OW 9155   4.070   5.595   5.521  0.5906 -0.1051  0.1673
 2346SOL    HW2 9156   4.020   5.548   5.588  0.7485 -0.8805 -0.2495
 2346SOL    HW3 9157   4.110   5.668   5.569  1.2635 -1.0375  1.0753
 2346SOL    MW4 9158   4.069   5.598   5.537  0.9266 -0.2751 -0.2627
 2347SOL     OW 9159   1.619   1.438   1.581  0.6497 -0.0011  0.3714
 2347SOL    HW2 9160   1.625   1.343   1.592 -0.3445 -0.2047 -0.6973
 2347SOL    HW3 9161   1.599   1.471   1.669  3.8203 -0.4599  1.3806
 2347SOL    MW4 9162   1.617   1.430   1.594  0.1205  0.3276  0.4824
 2348SOL     OW 9163   0.360   3.389   4.461  0.3895  0.3630 -0.2188
 2348SOL    HW2 9164   0.375   3.456   4.527 -0.4032  0.9058 -0.5859
 2348SOL    HW3 9165   0.329   3.436   4.384 -0.7665 -0.4750 -0.2902
 2348SOL    MW4 9166   0.358   3.404   4.460  0.2091  0.5689  0.5356
 2349SOL     OW 9167   5.795   3.951   2.613 -0.0559 -0.2248 -0.0690
 2349SOL    HW2 9168   5.806   3.897   2.691 -2.4089 -0.5501  0.0922
 2349SOL    HW3 9169   5.836   3.900   2.543  1.9405 -0.0011  0.8579
 2349SOL    MW4 9170   5.802   3.937   2.614 -0.5579  0.1977 -0.3492
 2350SOL     OW 9171   0.597   1.042   1.409  0.1164  0.0112 -0.2582
 2350SOL    HW2 9172   0.551   1.114   1.366  1.8200  1.8653  0.8544
 2350SOL    HW3 9173   0.630   1.080   1.491  2.4671 -1.5547 -0.3749
 2350SOL    MW4 9174   0.595   1.057   1.414  0.4107  0.3999 -0.1327
 2351SOL     OW 9175   1.494   5.747   4.139 -0.2253 -0.5543  0.0032
 2351SOL    HW2 9176   1.430   5.699   4.191 -1.2553  0.3461 -0.3994
 2351SOL    HW3 9177   1.533   5.809   4.201  1.0675 -1.8158  0.5101
 2351SOL    MW4 9178   1.491   5.749   4.154  0.3736 -0.1937  0.2007
 2352SOL     OW 9179   0.720   6.190   6.014  0.1774 -0.4431  0.7599
 2352SOL    HW2 9180   0.815   6.182   6.004  0.1718 -1.1946  1.2391
 2352SOL    HW3 9181   0.684   6.156   5.932  0.3751  3.5942 -1.2320
 2352SOL    MW4 9182   0.728   6.184   6.002 -0.6548 -0.1922  0.0365
 2353SOL     OW 9183   3.477   4.639   2.302  0.1328  0.0975  0.6602
 2353SOL    HW2 9184   3.387   4.666   2.287  0.2464 -0.0901 -0.4313
 2353SOL    HW3 9185   3.493   4.570   2.237  0.3067 -1.6002  2.4124
 2353SOL    MW4 9186   3.467   4.633   2.291  0.3003  0.2002  0.2063
 2354SOL     OW 9187   2.894   5.884   1.709  0.8932 -0.2255  0.0367
 2354SOL    HW2 9188   2.929   5.971   1.688  0.3915  0.1099  0.5665
 2354SOL    HW3 9189   2.960   5.845   1.766  0.4847  0.3573  0.9326
 2354SOL    MW4 9190   2.908   5.890   1.714 -0.1785  0.0315 -0.8558
 2355SOL     OW 9191   4.796   5.034   1.971 -0.1123 -0.4466  0.1592
 2355SOL    HW2 9192   4.876   4.992   2.003 -0.0076 -0.7081 -0.4275
 2355SOL    HW3 9193   4.779   4.991   1.888 -1.3358 -0.9861  0.6683
 2355SOL    MW4 9194   4.804   5.023   1.964  0.1017  0.3185  0.3007
 2356SOL     OW 9195   5.410   4.923   1.949  0.3072  0.0907  0.0803
 2356SOL    HW2 9196   5.474   4.858   1.920  0.8505  1.2419 -1.4210
 2356SOL    HW3 9197   5.439   4.946   2.038  0.2180 -1.5260  0.5552
 2356SOL    MW4 9198   5.423   4.918   1.957  0.5351 -0.3086 -0.0577
 2357SOL     OW 9199   1.829   5.839   1.822  0.3715 -0.2255 -0.1348
 2357SOL    HW2 9200   1.870   5.803   1.743 -0.2319 -1.1530 -0.0450
 2357SOL    HW3 9201   1.778   5.914   1.791  0.3470 -0.4243 -0.5926
 2357SOL    MW4 9202   1.828   5.844   1.808  0.0858 -0.2116 -0.4735
 2358SOL     OW 9203   4.511   2.538   1.624  0.4451  0.1791 -0.3944
 2358SOL    HW2 9204   4.497   2.444   1.627 -0.6179  0.3623  1.8497
 2358SOL    HW3 9205   4.553   2.553   1.539  0.2812 -2.2411 -0.9660
 2358SOL    MW4 9206   4.514   2.528   1.613 -0.0262 -0.5886 -0.2173
 2359SOL     OW 9207   4.516   0.563   2.921 -0.6092 -0.2194  0.3048
 2359SOL    HW2 9208   4.564   0.637   2.883 -1.5794  0.7225  0.8589
 2359SOL    HW3 9209   4.424   0.586   2.908 -0.9261 -1.5013  0.1996
 2359SOL    MW4 9210   4.511   0.576   2.914 -0.1821 -0.2296 -0.3322
 2360SOL     OW 9211   0.520   4.268   2.512 -0.2160 -0.3494  0.1515
 2360SOL    HW2 9212   0.445   4.215   2.487 -0.8526  1.2482 -1.6290
 2360SOL    HW3 9213   0.586   4.251   2.444  0.4240 -0.5723  0.8259
 2360SOL    MW4 9214   0.519   4.259   2.499  0.4006 -0.4929  0.0327
 2361SOL     OW 9215   5.557   1.694   6.177  0.5015  0.2903 -0.3179
 2361SOL    HW2 9216   5.476   1.718   6.133 -0.5059 -0.5137  1.0063
 2361SOL    HW3 9217   5.585   1.773   6.222  0.2333  0.4695 -0.4659
 2361SOL    MW4 9218   5.550   1.707   6.177 -0.4224  0.1341 -0.2523
 2362SOL     OW 9219   1.303   4.757   4.215  0.3939  0.7474 -0.4210
 2362SOL    HW2 9220   1.240   4.711   4.159 -0.1591  1.1386 -0.1327
 2362SOL    HW3 9221   1.337   4.828   4.160 -0.0909  1.0838 -0.2915
 2362SOL    MW4 9222   1.299   4.761   4.200  0.5717 -0.5850  0.1965
 2363SOL     OW 9223   4.529   6.386   1.821 -0.1895  0.8418  0.6690
 2363SOL    HW2 9224   4.469   6.439   1.874 -0.1723  1.0349  0.4970
 2363SOL    HW3 9225   4.518   6.420   1.732  1.0810  1.7078  0.8261
 2363SOL    MW4 9226   4.520   6.397   1.816  0.5531  0.1762  0.0119
 2364SOL     OW 9227   0.131   3.867   0.925 -0.0094  0.3863 -0.4402
 2364SOL    HW2 9228   0.036   3.883   0.929 -0.1829 -0.3097 -1.3633
 2364SOL    HW3 9229   0.168   3.952   0.902 -0.7196  0.0712 -3.1024
 2364SOL    MW4 9230   0.123   3.880   0.922  0.5701  0.2169  0.1382
 2365SOL     OW 9231   4.204   1.373   5.846  0.0766  0.1676 -0.0463
 2365SOL    HW2 9232   4.213   1.467   5.828  0.5082 -0.2524 -2.2361
 2365SOL    HW3 9233   4.140   1.342   5.782  0.8809 -1.2714 -0.1932
 2365SOL    MW4 9234   4.196   1.381   5.835 -0.5998  0.5801  0.1158
 2366SOL     OW 9235   2.694   3.017   3.714 -0.0981  0.4156 -0.0760
 2366SOL    HW2 9236   2.633   2.943   3.713 -0.6502  0.8535  0.2410
 2366SOL    HW3 9237   2.750   2.999   3.790  0.5448 -0.2737 -0.6966
 2366SOL    MW4 9238   2.693   3.005   3.724  0.1262 -0.0813 -0.3128
 2367SOL     OW 9239   0.546   6.026   1.410  0.9626 -0.0443 -0.5890
 2367SOL    HW2 9240   0.545   6.090   1.482  0.8616  0.1769 -0.7865
 2367SOL    HW3 9241   0.467   6.045   1.360  0.5741 -0.7757 -0.2602
 2367SOL    MW4 9242   0.536   6.037   1.413 -0.0875 -0.4610  0.1790
 2368SOL     OW 9243   3.963   0.692   3.615 -0.4120 -0.0074  0.5148
 2368SOL    HW2 9244   3.972   0.599   3.634  0.1296  0.0059  0.3404
 2368SOL    HW3 9245   3.948   0.733   3.700 -1.5216 -0.3440  0.5046
 2368SOL    MW4 9246   3.962   0.685   3.629 -0.3444  0.5834  0.4746
 2369SOL     OW 9247   5.939   0.883   4.829  0.0337  0.2584  0.5598
 2369SOL    HW2 9248   5.907   0.839   4.750 -0.0725 -1.0974  1.3346
 2369SOL    HW3 9249   5.861   0.901   4.880  0.2762 -0.9650  1.3973
 2369SOL    MW4 9250   5.925   0.880   4.825 -0.5112  0.0211  0.1780
 2370SOL     OW 9251   4.476   0.525   2.554 -0.0587  0.0793  0.0370
 2370SOL    HW2 9252   4.567   0.546   2.575 -0.5361  1.0755  1.2646
 2370SOL    HW3 9253   4.434   0.610   2.542 -1.3986 -0.1940  2.1626
 2370SOL    MW4 9254   4.482   0.539   2.555  0.2301 -0.0226 -0.2110
 2371SOL     OW 9255   3.833   0.222   5.454  0.0271 -0.5467  0.3826
 2371SOL    HW2 9256   3.851   0.171   5.375 -0.5230 -0.4451  0.1910
 2371SOL    HW3 9257   3.812   0.309   5.422  2.7680  0.3617  0.7800
 2371SOL    MW4 9258   3.833   0.227   5.440  0.0853 -0.2449  0.3882
 2372SOL     OW 9259   1.859   1.277   2.577 -0.0611 -0.3550  0.2294
 2372SOL    HW2 9260   1.876   1.349   2.638  1.9499 -0.4640 -0.1372
 2372SOL    HW3 9261   1.772   1.245   2.601  0.3737  0.0393  2.5692
 2372SOL    MW4 9262   1.850   1.283   2.588 -0.2904  0.1802  0.2284
 2373SOL     OW 9263   6.116   1.072   0.623  0.1828 -0.1239  0.2052
 2373SOL    HW2 9264   6.160   1.154   0.598  1.1750 -0.3947  1.0019
 2373SOL    HW3 9265   6.048   1.100   0.685  0.3010  0.1291  0.2239
 2373SOL    MW4 9266   6.112   1.087   0.628 -0.2495 -0.0714  0.0055
 2374SOL     OW 9267   2.573   4.565   2.821 -0.6889  0.5626  0.6846
 2374SOL    HW2 9268   2.526   4.631   2.873 -1.6855  2.2895 -2.1843
 2374SOL    HW3 9269   2.661   4.599   2.812 -0.4457  0.1431  1.3508
 2374SOL    MW4 9270   2.578   4.578   2.827  0.0942 -0.3156 -0.0859
 2375SOL     OW 9271   3.328   3.556   0.937 -0.3105 -0.4835  0.3372
 2375SOL    HW2 9272   3.289   3.469   0.933  0.7567 -1.1147  2.0512
 2375SOL    HW3 9273   3.420   3.539   0.959  1.0882  0.9095 -3.6154
 2375SOL    MW4 9274   3.335   3.542   0.940 -0.6942 -0.2398  0.4234
 2376SOL     OW 9275   3.217   5.101   5.224 -0.3850  0.2842 -0.1653
 2376SOL    HW2 9276   3.275   5.060   5.289  0.8705  1.2844 -0.6168
 2376SOL    HW3 9277   3.212   5.037   5.153 -0.2311 -0.0205  0.0963
 2376SOL    MW4 9278   3.224   5.087   5.223 -0.2609  0.5013  0.1112
 2377SOL     OW 9279   3.776   5.056   1.417 -0.1974  0.0757  0.0578
 2377SOL    HW2 9280   3.699   5.111   1.402 -0.0286  0.5502  0.8812
 2377SOL    HW3 9281   3.755   5.006   1.496 -0.5325 -1.3983 -0.9224
 2377SOL    MW4 9282   3.763   5.056   1.425  0.4769 -0.1720 -0.0832
 2378SOL     OW 9283   6.194   2.610   2.724  0.6472  0.1707 -0.6414
 2378SOL    HW2 9284   6.133   2.545   2.690  0.1305 -0.5964  1.5683
 2378SOL    HW3 9285   6.165   2.692   2.686 -1.5338 -0.2377  0.0042
 2378SOL    MW4 9286   6.182   2.612   2.715 -0.0418  0.1015  0.0763
 2379SOL     OW 9287   0.966   5.531   3.296 -0.6517 -0.3021 -0.8054
 2379SOL    HW2 9288   0.892   5.494   3.246 -1.1763  0.6851 -0.7793
 2379SOL    HW3 9289   1.043   5.493   3.255 -1.1199 -0.3184 -1.7065
 2379SOL    MW4 9290   0.966   5.521   3.284  0.3855  0.1591 -0.7693
 2380SOL     OW 9291   2.088   0.891   3.058 -0.3998  0.3857  0.5078
 2380SOL    HW2 9292   2.088   0.821   3.123 -0.1428  1.0672  1.2527
 2380SOL    HW3 9293   2.035   0.960   3.096 -0.3735  0.7382 -0.0769
 2380SOL    MW4 9294   2.081   0.891   3.071 -0.8715 -0.3414 -0.4304
 2381SOL     OW 9295   5.420   0.658   5.045  0.1941 -0.2565 -0.1167
 2381SOL    HW2 9296   5.368   0.595   4.995 -0.9727  0.3943  0.2439
 2381SOL    HW3 9297   5.430   0.733   4.986 -0.0978 -0.0028  0.1477
 2381SOL    MW4 9298   5.415   0.660   5.031 -0.2845 -0.2135  0.1355
 2382SOL     OW 9299   2.927   2.010   1.101 -0.2949  0.1988  0.1899
 2382SOL    HW2 9300   2.922   1.965   1.185 -1.0091 -1.5806 -0.7569
 2382SOL    HW3 9301   2.958   2.098   1.123 -0.3658 -0.2452  2.2882
 2382SOL    MW4 9302   2.930   2.016   1.115 -0.1495  0.7737  0.0666
 2383SOL     OW 9303   3.226   5.560   5.437 -0.3389  0.2922 -0.1180
 2383SOL    HW2 9304   3.213   5.494   5.505  0.1972  0.1133 -0.1846
 2383SOL    HW3 9305   3.138   5.594   5.420 -0.7098 -0.7793 -0.4631
 2383SOL    MW4 9306   3.213   5.555   5.444 -0.1443  0.2027 -0.3947
 2384SOL     OW 9307   3.292   1.953   3.706  0.1820 -0.8369 -0.4063
 2384SOL    HW2 9308   3.363   1.894   3.677 -0.4650 -1.1541 -1.4034
 2384SOL    HW3 9309   3.338   2.029   3.742  1.0325 -1.6973  0.3814
 2384SOL    MW4 9310   3.308   1.955   3.707  0.3856  0.8549 -0.2036
 2385SOL     OW 9311   3.054   4.573   0.147  0.4940 -0.1071  0.5379
 2385SOL    HW2 9312   2.962   4.576   0.119  0.2233  2.7937  1.3921
 2385SOL    HW3 9313   3.095   4.645   0.099  2.3345 -1.2888  0.2672
 2385SOL    MW4 9314   3.047   4.583   0.137  0.1772  0.0580  0.5792
 2386SOL     OW 9315   1.733   1.263   5.736 -0.3872 -0.0270 -0.1703
 2386SOL    HW2 9316   1.786   1.188   5.708 -0.7242  0.1030 -1.1990
 2386SOL    HW3 9317   1.739   1.262   5.831  0.9348 -0.4055 -0.2279
 2386SOL    MW4 9318   1.741   1.253   5.745 -0.4472  0.2520  0.0740
 2387SOL     OW 9319   5.734   2.058   2.113 -0.6354  0.0217 -0.7400
 2387SOL    HW2 9320   5.687   2.129   2.069  0.3142  1.3425  0.2899
 2387SOL    HW3 9321   5.824   2.067   2.082 -0.6603 -1.3085 -1.2688
 2387SOL    MW4 9322   5.740   2.069   2.103 -0.3268 -0.1674 -0.5107
 2388SOL     OW 9323   0.819   5.023   0.050  0.3213 -0.4215 -0.2858
 2388SOL    HW2 9324   0.858   4.946   0.092 -0.1196 -1.0936 -1.0733
 2388SOL    HW3 9325   0.882   5.049  -0.016  0.4057 -0.1849 -0.1147
 2388SOL    MW4 9326   0.832   5.016   0.047  0.1111 -0.0796  0.3014
 2389SOL     OW 9327   6.360   5.436   4.079  0.3230  0.0209 -0.2431
 2389SOL    HW2 9328   6.289   5.474   4.028  0.4923 -2.1146 -2.2017
 2389SOL    HW3 9329   6.325   5.353   4.111  1.6489 -0.7075 -0.6030
 2389SOL    MW4 9330   6.346   5.430   4.077  0.0991  0.0946  0.1958
 2390SOL     OW 9331   4.186   4.865   0.333 -0.5507 -0.0483  0.4940
 2390SOL    HW2 9332   4.277   4.888   0.353 -0.3275  1.0300 -1.5214
 2390SOL    HW3 9333   4.166   4.792   0.392  1.7624 -0.6159  0.6483
 2390SOL    MW4 9334   4.195   4.859   0.344 -0.6127  0.4716 -0.1044
 2391SOL     OW 9335   5.375   3.253   2.434 -0.6175 -0.0212 -0.5247
 2391SOL    HW2 9336   5.308   3.305   2.389 -0.8520 -0.1612 -0.3384
 2391SOL    HW3 9337   5.374   3.168   2.390 -1.0778 -0.2695 -0.0462
 2391SOL    MW4 9338   5.366   3.249   2.422 -0.2306  0.1930  0.0784
 2392SOL     OW 9339   2.761   3.108   4.620 -0.0198 -0.2405  0.5625
 2392SOL    HW2 9340   2.781   3.106   4.527 -1.2252 -0.7633  0.3011
 2392SOL    HW3 9341   2.744   3.017   4.643  0.5074 -0.1470  1.3551
 2392SOL    MW4 9342   2.761   3.096   4.611  0.0617 -1.3348  0.4357
 2393SOL     OW 9343   0.054   2.923   4.005 -0.2685 -0.1049 -0.6160
 2393SOL    HW2 9344   0.139   2.966   4.012 -0.3556 -0.0321  0.0416
 2393SOL    HW3 9345   0.071   2.846   3.950  0.0494  0.3377 -1.1533
 2393SOL    MW4 9346   0.068   2.918   3.999  0.6966  0.4641  0.4012
 2394SOL     OW 9347   2.619   1.345   4.118 -0.3206  0.6892  0.1586
 2394SOL    HW2 9348   2.589   1.307   4.036 -0.0943 -0.8284  0.7452
 2394SOL    HW3 9349   2.704   1.304   4.134  0.5167  2.3643  0.2348
 2394SOL    MW4 9350   2.626   1.334   4.110  0.3822  0.3288  0.2479
 2395SOL     OW 9351   6.195   0.113   4.243 -0.1691 -0.0987  0.4288
 2395SOL    HW2 9352   6.218   0.181   4.179 -1.0239  1.0392  1.2966
 2395SOL    HW3 9353   6.168   0.039   4.189  1.6069 -0.0824 -0.5480
 2395SOL    MW4 9354   6.195   0.112   4.227  0.1661  0.4064 -0.9539
 2396SOL     OW 9355   6.113   5.590   4.227 -0.0816 -0.5128 -0.3292
 2396SOL    HW2 9356   6.205   5.572   4.247 -0.7649 -1.4105  2.4612
 2396SOL    HW3 9357   6.101   5.681   4.253 -0.0713 -0.5137 -0.3208
 2396SOL    MW4 9358   6.124   5.600   4.233 -0.4361  0.1989  0.3476
 2397SOL     OW 9359   0.630   0.621   5.345  0.2707 -0.0649  0.2384
 2397SOL    HW2 9360   0.695   0.589   5.283  0.4217 -0.7428  0.7367
 2397SOL    HW3 9361   0.592   0.542   5.383  0.8251  0.3324  1.6753
 2397SOL    MW4 9362   0.634   0.607   5.342 -0.1262 -0.6806 -0.1652
 2398SOL     OW 9363   4.680   2.574   3.804  0.3254 -0.2383 -0.3362
 2398SOL    HW2 9364   4.704   2.527   3.883 -0.2826 -0.4912 -0.3010
 2398SOL    HW3 9365   4.764   2.603   3.767  0.6643 -0.8566 -0.0599
 2398SOL    MW4 9366   4.694   2.572   3.809 -0.0341 -0.3302 -0.0842
 2399SOL     OW 9367   3.373   1.610   1.550 -0.3698  0.4939 -0.4591
 2399SOL    HW2 9368   3.368   1.572   1.462  0.3594  0.4761 -0.4998
 2399SOL    HW3 9369   3.403   1.537   1.605 -0.7899  0.5147 -0.1995
 2399SOL    MW4 9370   3.377   1.595   1.546 -0.6132  0.5275 -0.2608
 2400SOL     OW 9371   1.976   4.639   1.382  0.1504 -0.0919  0.5107
 2400SOL    HW2 9372   1.966   4.613   1.474  0.3518  0.5290  0.7157
 2400SOL    HW3 9373   2.069   4.662   1.374  0.2362 -0.5984  0.0284
 2400SOL    MW4 9374   1.987   4.639   1.393 -0.3777  0.0231  0.1181
 2401SOL     OW 9375   4.201   6.292   0.175  0.7496  0.0203  0.3067
 2401SOL    HW2 9376   4.139   6.297   0.103  0.9646  0.0534  0.1245
 2401SOL    HW3 9377   4.234   6.202   0.173  1.1257  0.1591  0.0518
 2401SOL    MW4 9378   4.197   6.281   0.165  0.3852 -0.0889 -0.1827
 2402SOL     OW 9379   4.628   2.725   5.293 -0.3943 -0.0843 -0.2339
 2402SOL    HW2 9380   4.633   2.806   5.344 -0.3996 -0.5786  0.5754
 2402SOL    HW3 9381   4.540   2.692   5.308 -0.3871 -0.2512 -0.5491
 2402SOL    MW4 9382   4.617   2.731   5.302 -0.1141 -0.5761 -0.3365
 2403SOL     OW 9383   1.767   2.931   0.270 -0.0679 -0.0060 -0.3392
 2403SOL    HW2 9384   1.800   3.018   0.292  0.7622 -0.1110 -1.1162
 2403SOL    HW3 9385   1.738   2.937   0.180 -1.3837 -0.1623  0.0579
 2403SOL    MW4 9386   1.768   2.943   0.261  0.4071 -0.3363 -0.0786
 2404SOL     OW 9387   0.896   4.349   4.392  0.2418 -0.1003 -0.1473
 2404SOL    HW2 9388   0.956   4.419   4.366 -0.6173  0.8277  0.3029
 2404SOL    HW3 9389   0.835   4.342   4.318 -0.9678  1.1341  0.6893
 2404SOL    MW4 9390   0.896   4.358   4.379  0.3511 -0.0414 -0.3069
 2405SOL     OW 9391   6.060   0.172   1.012 -0.5643  0.0069  0.1072
 2405SOL    HW2 9392   6.106   0.206   0.935 -2.3797 -0.4006 -1.2013
 2405SOL    HW3 9393   6.065   0.076   1.002  0.4341 -0.0947  1.2965
 2405SOL    MW4 9394   6.067   0.164   1.001  0.4915 -0.0268 -0.2812
 2406SOL     OW 9395   0.433   2.799   0.192  0.0978 -0.1723  0.4960
 2406SOL    HW2 9396   0.492   2.848   0.250 -1.4387  1.0410  1.1118
 2406SOL    HW3 9397   0.428   2.851   0.113  0.2530 -0.5571  0.2284
 2406SOL    MW4 9398   0.440   2.812   0.189  0.1571 -0.5499  0.1854
 2407SOL     OW 9399   4.742   1.421   5.926 -0.1783 -0.3893  0.0656
 2407SOL    HW2 9400   4.734   1.488   5.993  0.7005  0.2602 -0.4538
 2407SOL    HW3 9401   4.655   1.381   5.920 -0.3959 -0.0975  1.2047
 2407SOL    MW4 9402   4.730   1.424   5.934 -0.2005 -0.5692  0.2969
 2408SOL     OW 9403   1.262   0.368   0.392  0.1062 -0.0399  0.3381
 2408SOL    HW2 9404   1.262   0.425   0.469  1.8010  1.5192 -0.7013
 2408SOL    HW3 9405   1.339   0.397   0.342 -0.5370 -1.4650 -1.5899
 2408SOL    MW4 9406   1.272   0.379   0.396  0.5499  0.1135  0.6997
 2409SOL     OW 9407   0.145   5.359   4.891 -0.5175  0.1284 -0.1016
 2409SOL    HW2 9408   0.231   5.316   4.897 -0.2425  0.5254 -1.0702
 2409SOL    HW3 9409   0.164   5.446   4.856 -1.1752  0.7368  1.0063
 2409SOL    MW4 9410   0.159   5.365   4.887  1.0590  0.2549 -0.2252
 2410SOL     OW 9411   0.226   1.414   0.754 -0.1132 -0.1300  0.7768
 2410SOL    HW2 9412   0.160   1.433   0.822 -0.5972  1.2537 -0.0279
 2410SOL    HW3 9413   0.305   1.458   0.785 -0.5724  1.2573  0.0733
 2410SOL    MW4 9414   0.227   1.423   0.767  0.5850  0.0837  0.2033
 2411SOL     OW 9415   5.331   2.151   0.222  0.4043 -0.0470  0.0849
 2411SOL    HW2 9416   5.336   2.075   0.163  0.2930  0.2693 -0.3371
 2411SOL    HW3 9417   5.403   2.138   0.283  1.9925  0.7542 -1.4984
 2411SOL    MW4 9418   5.342   2.139   0.222  0.1316 -0.4994 -0.3536
 2412SOL     OW 9419   2.886   0.751   4.568  0.4873  0.5589 -0.7640
 2412SOL    HW2 9420   2.950   0.736   4.637  1.3293  0.1803 -1.6004
 2412SOL    HW3 9421   2.816   0.689   4.586  0.2474  1.1167  0.2767
 2412SOL    MW4 9422   2.885   0.741   4.579  0.0229 -0.2958  0.0787
 2413SOL     OW 9423   5.758   0.941   6.102 -0.1500  0.3056  0.1916
 2413SOL    HW2 9424   5.769   1.033   6.125  0.1942  0.9227 -2.1583
 2413SOL    HW3 9425   5.837   0.898   6.135  1.6966  1.6563 -2.1063
 2413SOL    MW4 9426   5.770   0.948   6.109  0.1402 -0.4990 -0.4258
 2414SOL     OW 9427   4.748   0.379   6.042 -0.4528 -0.0485 -0.2401
 2414SOL    HW2 9428   4.772   0.300   6.091  0.6404 -0.4026 -1.2995
 2414SOL    HW3 9429   4.772   0.359   5.951  1.4322  2.1101 -0.3020
 2414SOL    MW4 9430   4.754   0.366   6.036  0.2566  0.1363 -0.0850
 2415SOL     OW 9431   3.685   4.694   4.938  0.0257  0.1477  0.0988
 2415SOL    HW2 9432   3.602   4.730   4.967  0.1993  0.9545 -0.3669
 2415SOL    HW3 9433   3.711   4.749   4.865  0.0759 -1.2206 -0.9655
 2415SOL    MW4 9434   3.678   4.706   4.932  0.2338  0.1196 -0.4151
 2416SOL     OW 9435   1.124   5.186   0.939 -0.1326 -0.2956  0.8160
 2416SOL    HW2 9436   1.075   5.155   1.015 -0.5493 -1.3076  0.1564
 2416SOL    HW3 9437   1.134   5.108   0.884 -0.6870  0.6167 -0.6333
 2416SOL    MW4 9438   1.119   5.172   0.942 -0.3688 -0.5608 -0.3271
 2417SOL     OW 9439   6.172   0.777   2.787  0.2813 -0.4587  0.0618
 2417SOL    HW2 9440   6.257   0.813   2.763  0.6328 -0.3719  1.3361
 2417SOL    HW3 9441   6.192   0.691   2.824 -0.0959 -0.1829  0.9444
 2417SOL    MW4 9442   6.186   0.770   2.789  0.6529  0.2038  0.1062
 2418SOL     OW 9443   1.910   1.297   6.399 -0.6662  0.7149  0.0994
 2418SOL    HW2 9444   1.832   1.266   6.351  0.1518  0.7951 -1.3506
 2418SOL    HW3 9445   1.876   1.362   6.459 -1.8204  0.2397 -0.0006
 2418SOL    MW4 9446   1.895   1.301   6.400 -0.0548  0.2295  0.2988
 2419SOL     OW 9447   3.239   3.354   3.448 -0.4151 -0.1063  0.3181
 2419SOL    HW2 9448   3.236   3.315   3.361 -1.0394  0.3747  0.1189
 2419SOL    HW3 9449   3.261   3.282   3.507 -1.4535 -0.7353 -0.0593
 2419SOL    MW4 9450   3.242   3.340   3.445 -0.3728 -0.1318  0.5645
 2420SOL     OW 9451   6.005   2.813   4.520  0.2730 -0.0764 -0.0997
 2420SOL    HW2 9452   6.049   2.839   4.438 -0.5916 -0.3804 -0.6733
 2420SOL    HW3 9453   6.076   2.807   4.584  0.9844  0.0527 -0.8543
 2420SOL    MW4 9454   6.020   2.816   4.518  0.0389 -0.3272 -0.0027
 2421SOL     OW 9455   3.752   5.279   1.843  0.1930  0.0640 -0.0907
 2421SOL    HW2 9456   3.837   5.256   1.805  0.1543 -1.1005  0.5010
 2421SOL    HW3 9457   3.770   5.289   1.937 -0.0086  1.4567 -0.1718
 2421SOL    MW4 9458   3.766   5.277   1.851  0.2704 -0.3092 -0.3078
 2422SOL     OW 9459   1.019   1.022   3.070 -0.2864  0.4592  0.0018
 2422SOL    HW2 9460   1.034   1.116   3.063  0.8505  0.3956  1.2520
 2422SOL    HW3 9461   0.985   1.009   3.158 -2.6316 -0.0834 -0.9140
 2422SOL    MW4 9462   1.017   1.033   3.080  0.0190  0.0174  0.1513
 2423SOL     OW 9463   5.373   3.690   4.132  0.2630 -0.0926 -0.2816
 2423SOL    HW2 9464   5.446   3.751   4.120 -1.5019  2.4525  0.9047
 2423SOL    HW3 9465   5.302   3.726   4.079 -1.3063 -0.2210  1.5933
 2423SOL    MW4 9466   5.373   3.703   4.123 -0.6935 -0.4580 -0.1241
 2424SOL     OW 9467   1.608   3.827   1.958 -0.1545  0.0142 -0.0540
 2424SOL    HW2 9468   1.532   3.845   1.902 -0.7605  2.8780  1.4996
 2424SOL    HW3 9469   1.683   3.841   1.900 -0.7894  1.6259 -0.5506
 2424SOL    MW4 9470   1.608   3.831   1.943 -0.6801  0.6003  0.7054
 2425SOL     OW 9471   1.393   0.827   4.378  0.3375  0.1902 -0.1577
 2425SOL    HW2 9472   1.317   0.778   4.349 -0.9841  1.6862  0.6383
 2425SOL    HW3 9473   1.435   0.770   4.443  0.0476 -0.7413 -0.7733
 2425SOL    MW4 9474   1.389   0.813   4.383 -0.6414  0.7732  0.3016
 2426SOL     OW 9475   4.898   0.044   4.514  0.5738 -0.1872  0.6026
 2426SOL    HW2 9476   4.939   0.010   4.435  1.0681 -1.2747  1.3051
 2426SOL    HW3 9477   4.812   0.003   4.516 -0.2730  1.4597 -0.4405
 2426SOL    MW4 9478   4.892   0.034   4.504  0.8284  0.0205 -0.3749
 2427SOL     OW 9479   5.865   0.840   6.372 -0.0245 -0.5310  0.3932
 2427SOL    HW2 9480   5.788   0.837   6.429  0.3804 -1.8470  0.9057
 2427SOL    HW3 9481   5.888   0.748   6.358  2.4267 -0.1941  1.6220
 2427SOL    MW4 9482   5.858   0.827   6.378 -0.5461  0.1452 -0.8399
 2428SOL     OW 9483   5.986   2.254   4.335 -0.0642 -0.5087  0.2652
 2428SOL    HW2 9484   5.937   2.283   4.259 -0.0626  1.9904  1.1228
 2428SOL    HW3 9485   5.919   2.239   4.402  0.1284  0.2274  0.6303
 2428SOL    MW4 9486   5.971   2.256   4.334  0.1704  0.0496  0.3243
 2429SOL     OW 9487   1.791   5.129   3.168  0.3161  0.5575  0.2712
 2429SOL    HW2 9488   1.819   5.038   3.155 -1.0830 -0.1762  1.9594
 2429SOL    HW3 9489   1.857   5.166   3.227  0.8033  0.6112 -0.2967
 2429SOL    MW4 9490   1.803   5.122   3.174  0.0809  0.0071  0.2547
 2430SOL     OW 9491   2.466   5.416   6.181 -0.0815 -0.1016  0.4945
 2430SOL    HW2 9492   2.548   5.465   6.187 -0.6988  0.8485  1.9808
 2430SOL    HW3 9493   2.486   5.331   6.221  0.1997  0.1085  0.8072
 2430SOL    MW4 9494   2.480   5.411   6.187 -0.6620 -0.5539  0.5785
 2431SOL     OW 9495   1.147   3.089   3.569 -0.2473  0.2758  0.2612
 2431SOL    HW2 9496   1.149   2.998   3.599  0.3472 -0.1240 -0.9050
 2431SOL    HW3 9497   1.234   3.123   3.590  0.1524  0.0115 -0.8665
 2431SOL    MW4 9498   1.159   3.082   3.575 -0.6706 -0.4408 -0.4337
 2432SOL     OW 9499   1.001   2.180   1.026 -0.2022  0.3338 -0.0363
 2432SOL    HW2 9500   0.979   2.097   0.983 -1.4053  1.0744 -0.9353
 2432SOL    HW3 9501   1.011   2.158   1.118  3.1510 -1.4596 -0.6577
 2432SOL    MW4 9502   1.000   2.166   1.032  0.0628  0.4065  0.7493
 2433SOL     OW 9503   1.515   5.526   1.020  0.2132 -0.3149 -0.4740
 2433SOL    HW2 9504   1.443   5.467   1.043  0.7954 -0.4872  1.0183
 2433SOL    HW3 9505   1.472   5.606   0.990 -0.6407 -0.1052  1.1977
 2433SOL    MW4 9506   1.500   5.529   1.019  0.2238 -0.5098 -0.3650
 2434SOL     OW 9507   6.195   3.423   3.580  0.7339  0.3853  0.4488
 2434SOL    HW2 9508   6.273   3.476   3.568  0.3628  0.6639 -0.8607
 2434SOL    HW3 9509   6.167   3.400   3.492 -2.0384  2.3484  0.6786
 2434SOL    MW4 9510   6.201   3.427   3.567 -0.0869  0.0509 -0.4100
 2435SOL     OW 9511   2.002   0.652   3.818 -0.5190  0.4084 -0.2461
 2435SOL    HW2 9512   1.912   0.631   3.840 -0.9211  0.9410 -1.3095
 2435SOL    HW3 9513   2.005   0.648   3.722  0.9316 -0.9633 -0.1721
 2435SOL    MW4 9514   1.991   0.649   3.808  0.4503  0.4292 -0.1997
 2436SOL     OW 9515   4.181   5.419   4.480  0.2034 -0.1384  0.5922
 2436SOL    HW2 9516   4.270   5.385   4.489  0.1262 -0.6439 -0.3723
 2436SOL    HW3 9517   4.158   5.452   4.567  0.8005 -1.3037  1.2139
 2436SOL    MW4 9518   4.189   5.419   4.492 -0.3007  0.3746  0.1847
 2437SOL     OW 9519   3.449   3.935   5.914  0.4250 -0.1165  0.2143
 2437SOL    HW2 9520   3.532   3.982   5.903  0.1966  0.8946  2.2275
 2437SOL    HW3 9521   3.382   3.998   5.888  0.2027 -0.0512  0.9168
 2437SOL    MW4 9522   3.451   3.950   5.909 -0.0107  0.2620 -0.0810
 2438SOL     OW 9523   1.556   4.407   6.196  0.3170 -0.6315 -0.0993
 2438SOL    HW2 9524   1.499   4.357   6.136  0.3093  0.2819 -0.8745
 2438SOL    HW3 9525   1.498   4.433   6.267  0.1934 -1.2482  0.0365
 2438SOL    MW4 9526   1.541   4.404   6.197  0.4696  0.4389  0.3904
 2439SOL     OW 9527   4.858   3.197   4.791  0.1535 -0.0551  0.4582
 2439SOL    HW2 9528   4.914   3.268   4.762 -2.2423  0.7411 -2.7591
 2439SOL    HW3 9529   4.800   3.237   4.856 -0.4665  0.7215 -0.5400
 2439SOL    MW4 9530   4.858   3.211   4.796 -0.1775 -0.0677  0.4353
 2440SOL     OW 9531   4.489   1.035   3.792 -0.0137  0.2101 -0.0567
 2440SOL    HW2 9532   4.520   0.945   3.782  0.0566  0.3287 -1.0917
 2440SOL    HW3 9533   4.546   1.073   3.858 -1.2341 -1.0157  1.7746
 2440SOL    MW4 9534   4.501   1.028   3.799  0.3449  0.2907 -0.3315
 2441SOL     OW 9535   1.681   3.868   5.381  0.3515 -0.1215  0.0960
 2441SOL    HW2 9536   1.622   3.874   5.307  0.1948  0.6640  0.2703
 2441SOL    HW3 9537   1.708   3.959   5.398 -0.4042 -0.1342  1.6141
 2441SOL    MW4 9538   1.677   3.881   5.374 -0.1414 -0.6236  0.5368
 2442SOL     OW 9539   5.179   4.385   6.286 -0.3039 -0.6697 -0.1975
 2442SOL    HW2 9540   5.160   4.299   6.249 -0.1173 -0.4789 -0.7459
 2442SOL    HW3 9541   5.126   4.445   6.234 -0.4120 -0.4447  0.1664
 2442SOL    MW4 9542   5.169   4.381   6.274  0.1983  0.6708  0.6578
 2443SOL     OW 9543   2.784   0.981   3.916  0.3719  0.0287  0.1718
 2443SOL    HW2 9544   2.872   1.014   3.936  0.7154 -0.5988 -0.2903
 2443SOL    HW3 9545   2.734   1.059   3.892  0.9739  0.3090 -0.1890
 2443SOL    MW4 9546   2.789   0.996   3.916 -0.3708  0.0133  0.1639
 2444SOL     OW 9547   3.555   1.699   0.125 -0.1676 -0.0537  0.0739
 2444SOL    HW2 9548   3.539   1.650   0.044  1.4086 -1.5778  0.6027
 2444SOL    HW3 9549   3.643   1.736   0.114 -0.0365 -0.0734  0.9686
 2444SOL    MW4 9550   3.565   1.697   0.113 -0.1739  0.6378 -0.9900
 2445SOL     OW 9551   5.377   1.480   3.044 -0.4608  0.9593 -0.1410
 2445SOL    HW2 9552   5.284   1.500   3.055 -0.7116  0.4363 -1.1735
 2445SOL    HW3 9553   5.395   1.414   3.111 -0.6234  1.6500  0.5939
 2445SOL    MW4 9554   5.367   1.474   3.054  0.1580  0.0949 -0.0906
 2446SOL     OW 9555   1.324   2.949   6.178 -0.0976 -0.3920 -0.1792
 2446SOL    HW2 9556   1.326   3.034   6.222  0.2866 -0.6907  0.3948
 2446SOL    HW3 9557   1.339   2.970   6.085 -0.1417  0.1770 -0.0607
 2446SOL    MW4 9558   1.327   2.963   6.171 -0.6743 -0.2444 -0.1396
 2447SOL     OW 9559   3.891   1.319   1.658  0.3438  0.4360  0.0064
 2447SOL    HW2 9560   3.946   1.298   1.583 -0.8242 -1.9462 -0.2771
 2447SOL    HW3 9561   3.816   1.366   1.620 -0.2152 -0.7110 -0.3868
 2447SOL    MW4 9562   3.888   1.322   1.643 -0.2410 -0.5893  0.1698
 2448SOL     OW 9563   4.033   0.985   3.559  0.1165  0.1673 -0.1676
 2448SOL    HW2 9564   3.941   1.006   3.577  0.4414  1.6869 -0.1498
 2448SOL    HW3 9565   4.038   0.890   3.568 -1.3635  0.1041  0.2498
 2448SOL    MW4 9566   4.021   0.975   3.563 -0.1562  0.1235  0.6567
 2449SOL     OW 9567   3.982   4.504   4.986  0.3717 -0.1539 -0.2836
 2449SOL    HW2 9568   3.962   4.553   4.907  0.9967  0.3256 -0.1494
 2449SOL    HW3 9569   3.932   4.422   4.977 -0.2515  0.2726 -0.7551
 2449SOL    MW4 9570   3.973   4.499   4.975 -0.1810  0.0877  0.1141
 2450SOL     OW 9571   2.840   1.889   1.629  0.4987  0.1486  0.7684
 2450SOL    HW2 9572   2.838   1.934   1.713 -1.5778  0.5783  0.5462
 2450SOL    HW3 9573   2.757   1.912   1.587  0.7118 -1.4448 -0.6649
 2450SOL    MW4 9574   2.828   1.898   1.634  0.4883 -0.0882 -0.0360
 2451SOL     OW 9575   3.854   0.337   3.035 -0.2516  0.2761 -0.1176
 2451SOL    HW2 9576   3.874   0.337   2.942  0.8946  2.5613  0.0471
 2451SOL    HW3 9577   3.876   0.426   3.064 -1.6092 -0.0379  2.1190
 2451SOL    MW4 9578   3.860   0.349   3.027 -0.1934  0.1115 -0.0059
 2452SOL     OW 9579   3.893   1.375   3.409  0.1813  0.1790  0.8371
 2452SOL    HW2 9580   3.837   1.297   3.406  0.3373 -0.0001  1.8925
 2452SOL    HW3 9581   3.976   1.343   3.447  1.2684  0.2996 -1.3091
 2452SOL    MW4 9582   3.897   1.360   3.414 -0.1197  0.4976  0.0018
 2453SOL     OW 9583   0.763   4.765   1.098  0.2523 -1.1653 -0.6055
 2453SOL    HW2 9584   0.686   4.762   1.041 -0.3736  2.6936 -0.2750
 2453SOL    HW3 9585   0.837   4.772   1.039 -0.2693  1.3478 -1.0576
 2453SOL    MW4 9586   0.763   4.766   1.083 -0.2138  0.2590  0.4536
 2454SOL     OW 9587   0.858   1.287   3.526  0.0378  0.7060  0.2278
 2454SOL    HW2 9588   0.934   1.248   3.482 -0.0157  0.3868  0.4161
 2454SOL    HW3 9589   0.819   1.344   3.459  1.9958  3.0545  0.9299
 2454SOL    MW4 9590   0.863   1.289   3.511 -0.3686  0.0277 -0.4561
 2455SOL     OW 9591   3.272   3.372   0.051  0.1315 -0.2336 -0.1948
 2455SOL    HW2 9592   3.184   3.398   0.078  0.7621  1.9212 -0.1046
 2455SOL    HW3 9593   3.257   3.301  -0.012 -1.7548  1.2670 -1.5366
 2455SOL    MW4 9594   3.259   3.366   0.047 -0.7256  0.5786  0.4365
 2456SOL     OW 9595   5.365   0.340   1.293  0.2964  0.0317  0.2172
 2456SOL    HW2 9596   5.459   0.351   1.275 -0.0190 -0.0662 -1.7156
 2456SOL    HW3 9597   5.354   0.246   1.307  0.5546  0.1125  1.0295
 2456SOL    MW4 9598   5.376   0.329   1.292 -0.7310  0.5335 -0.1781
 2457SOL     OW 9599   4.898   2.948   2.177  0.5809  0.4620 -0.1223
 2457SOL    HW2 9600   4.808   2.941   2.209  0.4143  0.1078 -0.6515
 2457SOL    HW3 9601   4.927   2.857   2.167  1.5292  0.5496  1.4841
 2457SOL    MW4 9602   4.890   2.935   2.180 -0.1573 -0.4647  0.1455
 2458SOL     OW 9603   1.078   2.145   2.652 -0.0336  0.3478  0.5025
 2458SOL    HW2 9604   1.019   2.220   2.653 -1.5724 -0.8008  1.1026
 2458SOL    HW3 9605   1.075   2.113   2.562 -0.6314  0.0975  0.6038
 2458SOL    MW4 9606   1.069   2.151   2.641 -0.0858 -0.1147  0.8650
 2459SOL     OW 9607   6.313   5.412   1.473  0.0777 -0.2220  0.0428
 2459SOL    HW2 9608   6.378   5.480   1.453  1.4003 -1.2904  0.5681
 2459SOL    HW3 9609   6.232   5.444   1.432  0.9952  1.0023 -0.9126
 2459SOL    MW4 9610   6.311   5.425   1.465 -0.0092  0.2329 -0.0076
 2460SOL     OW 9611   4.763   5.060   0.594 -0.0345  0.4390  0.5372
 2460SOL    HW2 9612   4.669   5.078   0.582 -0.5043 -0.9293  1.8634
 2460SOL    HW3 9613   4.785   5.103   0.676  0.9403  2.1089 -0.5364
 2460SOL    MW4 9614   4.753   5.068   0.603  0.2800 -0.2144  0.2661
 2461SOL     OW 9615   0.047   3.870   5.152 -0.1682  0.1401 -0.5684
 2461SOL    HW2 9616   0.047   3.948   5.207  2.6175 -0.2776  0.2030
 2461SOL    HW3 9617   0.012   3.801   5.208  1.7277 -0.0698  0.4441
 2461SOL    MW4 9618   0.042   3.871   5.167 -0.2745 -0.2591  0.4761
 2462SOL     OW 9619   1.352   2.444   2.763  0.1114 -0.0385 -0.3606
 2462SOL    HW2 9620   1.269   2.459   2.807  0.0675 -1.0126 -0.0789
 2462SOL    HW3 9621   1.418   2.467   2.828  0.0720  0.8082 -0.6102
 2462SOL    MW4 9622   1.350   2.449   2.777  0.3894 -0.1008 -0.1436
 2463SOL     OW 9623   3.317   0.736   1.202 -0.5612 -0.4273 -0.7908
 2463SOL    HW2 9624   3.283   0.784   1.126  1.1653  1.0006 -0.7249
 2463SOL    HW3 9625   3.411   0.730   1.186 -0.5061 -2.3396  0.0531
 2463SOL    MW4 9626   3.325   0.742   1.190 -0.6513  0.1785 -0.5939
 2464SOL     OW 9627   6.346   4.940   4.442  0.3162  0.4213  0.0951
 2464SOL    HW2 9628   6.326   5.031   4.465 -1.1230  0.0043  0.6234
 2464SOL    HW3 9629   6.365   4.897   4.525 -1.2655 -0.2529  0.1499
 2464SOL    MW4 9630   6.346   4.946   4.456  0.5318 -0.3822  0.2182
 2465SOL     OW 9631   0.194   5.379   1.296  0.7704 -0.1682  0.3877
 2465SOL    HW2 9632   0.228   5.463   1.328 -1.6052  0.7167  0.7887
 2465SOL    HW3 9633   0.271   5.333   1.263  1.9257  3.0465 -1.9081
 2465SOL    MW4 9634   0.209   5.384   1.296  0.2367  0.1177  0.1361
 2466SOL     OW 9635   2.596   2.989   5.383  0.3155  0.0591  0.1883
 2466SOL    HW2 9636   2.687   3.007   5.360  0.1089 -0.3024 -0.9747
 2466SOL    HW3 9637   2.593   2.894   5.394  0.2042  0.1332  0.8378
 2466SOL    MW4 9638   2.608   2.979   5.382  0.1983  0.4733  0.0251
 2467SOL     OW 9639   1.883   3.446   0.668 -0.3569  0.4405 -0.5135
 2467SOL    HW2 9640   1.930   3.516   0.624  0.5247  0.9177  1.0876
 2467SOL    HW3 9641   1.799   3.485   0.692 -0.4507  0.4795 -0.9042
 2467SOL    MW4 9642   1.878   3.460   0.666 -0.0947  0.2356  0.2668
 2468SOL     OW 9643   2.878   1.581   3.015 -0.1679 -0.3952  0.3865
 2468SOL    HW2 9644   2.915   1.667   3.034 -0.3748 -0.0258 -0.7904
 2468SOL    HW3 9645   2.817   1.596   2.943  0.4109 -1.6363 -0.4158
 2468SOL    MW4 9646   2.875   1.594   3.008  0.1705 -0.1938 -0.5651
 2469SOL     OW 9647   4.587   6.198   6.160  0.3040 -0.2040 -0.0460
 2469SOL    HW2 9648   4.570   6.287   6.129  1.2429 -1.0891 -3.5883
 2469SOL    HW3 9649   4.672   6.176   6.122  1.2515 -1.8616  2.7378
 2469SOL    MW4 9650   4.596   6.207   6.151  0.5164 -0.1636 -0.5726
 2470SOL     OW 9651   3.833   1.060   4.161  0.3091 -0.4545 -0.0208
 2470SOL    HW2 9652   3.892   1.035   4.232 -0.6318 -1.5600  0.4226
 2470SOL    HW3 9653   3.882   1.043   4.081  2.2465  2.9598  0.2746
 2470SOL    MW4 9654   3.847   1.055   4.160 -0.4121  0.0934 -0.4034
 2471SOL     OW 9655   0.667   0.449   0.783  0.4317 -0.1086 -0.9429
 2471SOL    HW2 9656   0.571   0.451   0.785  0.4469  0.9681  0.0752
 2471SOL    HW3 9657   0.690   0.362   0.816 -0.1974 -0.4613 -1.4234
 2471SOL    MW4 9658   0.657   0.438   0.788 -0.2723 -0.0662 -0.1319
 2472SOL     OW 9659   0.094   3.206   3.964  0.4347 -0.4328  0.6172
 2472SOL    HW2 9660   0.067   3.120   3.931 -1.5268  0.8068 -1.2530
 2472SOL    HW3 9661   0.179   3.222   3.922  0.9703 -1.5412  1.2297
 2472SOL    MW4 9662   0.102   3.196   3.954 -0.0822 -0.5013  0.1067
 2473SOL     OW 9663   0.289   4.602   3.315  0.3273  0.7819 -0.6959
 2473SOL    HW2 9664   0.205   4.621   3.357  1.0243  0.0642  1.0898
 2473SOL    HW3 9665   0.265   4.555   3.235 -0.9716  0.2751 -0.0373
 2473SOL    MW4 9666   0.274   4.599   3.310 -0.1227  0.4008  0.2289
 2474SOL     OW 9667   2.384   2.778   4.657 -0.1491  0.1234  0.4914
 2474SOL    HW2 9668   2.393   2.787   4.751 -0.5624 -0.8899  0.6453
 2474SOL    HW3 9669   2.440   2.704   4.634 -0.0106  0.3916 -0.0636
 2474SOL    MW4 9670   2.392   2.769   4.666 -0.5501 -0.0564 -0.3937
 2475SOL     OW 9671   0.560   4.802   2.437  0.1880 -0.2720  0.3189
 2475SOL    HW2 9672   0.507   4.837   2.508 -0.3814 -1.4275  0.4893
 2475SOL    HW3 9673   0.544   4.861   2.363 -0.0166  0.3424  0.8486
 2475SOL    MW4 9674   0.551   4.814   2.437  0.0633  0.1379 -0.1340
 2476SOL     OW 9675   1.489   0.054   4.198  0.0157  0.9322 -0.2022
 2476SOL    HW2 9676   1.409   0.105   4.180 -1.0590 -0.0520  1.4794
 2476SOL    HW3 9677   1.532   0.102   4.269  0.1030  0.6347 -0.0549
 2476SOL    MW4 9678   1.484   0.067   4.205 -0.8082  0.5012 -0.5954
 2477SOL     OW 9679   3.748   5.060   3.320 -0.1888  0.1809 -0.4509
 2477SOL    HW2 9680   3.772   5.136   3.373  0.1594 -0.3407  0.1562
 2477SOL    HW3 9681   3.827   5.041   3.269  0.2313 -0.6462  0.4711
 2477SOL    MW4 9682   3.762   5.067   3.320 -0.0455  0.4246 -0.5797
 2478SOL     OW 9683   0.249   3.778   1.143  0.0046  0.0238 -0.5563
 2478SOL    HW2 9684   0.185   3.785   1.214  0.3246  1.9278 -0.4111
 2478SOL    HW3 9685   0.203   3.809   1.065  0.8127  1.8025 -0.3752
 2478SOL    MW4 9686   0.235   3.783   1.142  0.0946  0.3014  0.5434
 2479SOL     OW 9687   3.165   4.063   1.078  0.6047  0.4792 -0.3594
 2479SOL    HW2 9688   3.236   4.007   1.111 -0.5578 -2.1330 -1.9653
 2479SOL    HW3 9689   3.206   4.113   1.007  1.3878  0.8151  0.3069
 2479SOL    MW4 9690   3.180   4.062   1.073 -0.4935  0.5386 -0.0229
 2480SOL     OW 9691   1.189   2.218   1.571  0.6276  0.0412 -0.1201
 2480SOL    HW2 9692   1.152   2.228   1.483  3.8720 -0.6743 -1.7156
 2480SOL    HW3 9693   1.192   2.123   1.585  0.0044  0.1528  0.8668
 2480SOL    MW4 9694   1.184   2.206   1.561  0.2748 -0.1738  0.2109
 2481SOL     OW 9695   5.428   3.987   6.210  0.3440  0.0359  0.2003
 2481SOL    HW2 9696   5.376   3.940   6.145  1.1409 -0.6888  0.0722
 2481SOL    HW3 9697   5.479   4.050   6.159  0.1823  0.2045  0.2442
 2481SOL    MW4 9698   5.428   3.989   6.195  0.0315  0.6947 -0.3163
 2482SOL     OW 9699   5.489   1.784   2.831 -0.1731 -0.3503  0.5945
 2482SOL    HW2 9700   5.414   1.726   2.816  0.0333 -0.7849  1.2180
 2482SOL    HW3 9701   5.547   1.735   2.889  0.1854  0.3340  0.8310
 2482SOL    MW4 9702   5.487   1.770   2.836 -0.0740 -0.1785 -0.3538
 2483SOL     OW 9703   4.828   1.911   1.416 -0.1306 -0.3050 -0.3640
 2483SOL    HW2 9704   4.919   1.926   1.389 -0.1990  0.0408 -0.4044
 2483SOL    HW3 9705   4.788   1.998   1.413 -0.3532 -0.3927  0.0627
 2483SOL    MW4 9706   4.835   1.925   1.412  0.5295 -0.1595 -0.4534
 2484SOL     OW 9707   0.773   0.223   2.252 -0.3633 -0.4566  0.1564
 2484SOL    HW2 9708   0.721   0.303   2.243  0.8229  0.5655  1.7910
 2484SOL    HW3 9709   0.758   0.196   2.343 -0.6737 -2.0617 -0.3546
 2484SOL    MW4 9710   0.764   0.230   2.263  0.1838 -0.4743 -0.9892
 2485SOL     OW 9711   2.177   6.342   1.693  0.2011  0.0637 -0.3186
 2485SOL    HW2 9712   2.102   6.283   1.699  0.1582  0.0956 -0.5329
 2485SOL    HW3 9713   2.240   6.295   1.639  0.0837  0.2991 -0.6643
 2485SOL    MW4 9714   2.175   6.328   1.687  0.1680  0.5431  0.0952
 2486SOL     OW 9715   2.054   4.748   5.593 -0.1865 -0.2635  0.1988
 2486SOL    HW2 9716   2.081   4.750   5.685 -0.0284  0.4969  0.1438
 2486SOL    HW3 9717   2.064   4.656   5.567  3.7102  0.1076 -0.2243
 2486SOL    MW4 9718   2.059   4.736   5.602 -0.2711 -0.2058 -0.2886
 2487SOL     OW 9719   1.342   5.715   2.267  0.2794 -0.6490 -0.1651
 2487SOL    HW2 9720   1.357   5.708   2.173 -0.3202  1.8085 -0.5234
 2487SOL    HW3 9721   1.396   5.789   2.294 -0.1753 -0.8207  1.2774
 2487SOL    MW4 9722   1.351   5.724   2.258 -0.7041 -0.2499  0.5632
 2488SOL     OW 9723   2.685   0.090   1.914 -0.2362 -0.1108 -0.2203
 2488SOL    HW2 9724   2.652   0.076   1.825 -0.7622  0.7347 -0.1710
 2488SOL    HW3 9725   2.666   0.182   1.933  2.7504  0.6496 -0.4187
 2488SOL    MW4 9726   2.678   0.100   1.905  0.0061  0.7228  0.0724
 2489SOL     OW 9727   4.266   4.282   5.251 -0.0773 -0.0434  0.3070
 2489SOL    HW2 9728   4.200   4.351   5.262  0.5195  0.4994  0.5329
 2489SOL    HW3 9729   4.215   4.202   5.241 -0.7996  0.5208 -0.6701
 2489SOL    MW4 9730   4.251   4.280   5.251 -0.0626  0.0640 -0.3179
 2490SOL     OW 9731   0.139   1.575   1.386 -0.3254 -0.8137  0.1935
 2490SOL    HW2 9732   0.201   1.615   1.324  0.2607 -1.6219  0.2458
 2490SOL    HW3 9733   0.119   1.490   1.348 -0.4641 -1.0545  0.7990
 2490SOL    MW4 9734   0.145   1.569   1.373  0.7996  0.0565  0.1871
 2491SOL     OW 9735   4.097   4.018   2.504 -0.4972  0.1358  0.1865
 2491SOL    HW2 9736   4.143   3.983   2.428 -0.2805 -0.8379  0.7394
 2491SOL    HW3 9737   4.011   4.044   2.470 -0.4250 -0.3337 -0.3791
 2491SOL    MW4 9738   4.092   4.016   2.489  0.4341 -0.1328 -0.2013
 2492SOL     OW 9739   5.857   3.396   2.253 -0.4363 -0.2328 -0.0497
 2492SOL    HW2 9740   5.919   3.325   2.267 -0.9022 -0.4964  0.7443
 2492SOL    HW3 9741   5.793   3.387   2.324 -1.9787 -0.6018 -1.4203
 2492SOL    MW4 9742   5.857   3.386   2.264 -0.1322 -0.0888 -0.7032
 2493SOL     OW 9743   1.226   0.891   0.964  0.0851  0.1725 -0.1635
 2493SOL    HW2 9744   1.293   0.861   1.025  1.9792 -0.9424 -2.6247
 2493SOL    HW3 9745   1.215   0.984   0.984  1.5374  0.1210  1.0586
 2493SOL    MW4 9746   1.233   0.899   0.974  0.3060 -0.3015 -0.4987
 2494SOL     OW 9747   6.362   1.900   0.230 -0.1678 -0.0358 -0.3870
 2494SOL    HW2 9748   6.451   1.894   0.194  1.1549 -2.1120  2.7884
 2494SOL    HW3 9749   6.330   1.810   0.230 -2.3264  0.6550 -1.3759
 2494SOL    MW4 9750   6.369   1.887   0.225  0.0207  0.0140 -0.4742
 2495SOL     OW 9751   5.778   3.882   6.221  0.3948 -0.2659 -0.4564
 2495SOL    HW2 9752   5.718   3.956   6.224  2.6543  1.6539  0.1740
 2495SOL    HW3 9753   5.723   3.806   6.241 -1.3830  1.6611  3.0039
 2495SOL    MW4 9754   5.762   3.882   6.224 -0.0738 -0.4175  0.0199
 2496SOL     OW 9755   2.913   4.257   6.199 -0.4655 -0.6870  0.4523
 2496SOL    HW2 9756   2.874   4.321   6.139 -0.6032 -0.4664  0.7712
 2496SOL    HW3 9757   2.921   4.177   6.148  2.1118  0.2570 -0.8032
 2496SOL    MW4 9758   2.909   4.255   6.184 -0.2330  1.0550 -0.3906
 2497SOL     OW 9759   3.510   2.445   4.400 -0.4957  0.4882  0.1513
 2497SOL    HW2 9760   3.514   2.440   4.496  0.3767  0.0988  0.1067
 2497SOL    HW3 9761   3.592   2.405   4.371 -0.2684  1.5453 -0.7234
 2497SOL    MW4 9762   3.522   2.439   4.409 -0.0460  0.3258  0.5860
 2498SOL     OW 9763   5.836   2.858   2.165  0.2240 -0.0979  0.0042
 2498SOL    HW2 9764   5.893   2.788   2.197  0.0841 -0.3280 -0.2361
 2498SOL    HW3 9765   5.861   2.935   2.215 -0.5365 -0.6243  1.2373
 2498SOL    MW4 9766   5.847   2.859   2.176  0.0583 -0.0437 -0.1349
 2499SOL     OW 9767   2.396   3.237   0.333  0.2585  0.2211  0.2603
 2499SOL    HW2 9768   2.315   3.203   0.370  0.0886 -0.7154 -0.9085
 2499SOL    HW3 9769   2.391   3.213   0.240  1.5373  0.8029  0.0283
 2499SOL    MW4 9770   2.384   3.229   0.325 -0.2840  0.0731  0.1226
 2500SOL     OW 9771   1.253   6.279   6.306 -0.1153 -0.1453  0.3270
 2500SOL    HW2 9772   1.276   6.212   6.241 -0.5701  0.7748 -0.8124
 2500SOL    HW3 9773   1.157   6.280   6.306 -0.1337  1.4560 -0.7080
 2500SOL    MW4 9774   1.243   6.270   6.298 -0.0627  0.1903  0.6613
 2501SOL     OW 9775   3.336   4.782   5.976  0.3043 -0.1577  0.0319
 2501SOL    HW2 9776   3.298   4.847   5.917  0.0638  0.3667  0.7446
 2501SOL    HW3 9777   3.427   4.810   5.986  0.1477  0.1899  0.4974
 2501SOL    MW4 9778   3.343   4.794   5.969 -0.3487 -0.7259 -0.2432
 2502SOL     OW 9779   2.039   0.604   0.280  0.3615 -0.2082  0.4097
 2502SOL    HW2 9780   2.120   0.556   0.265  2.0271  2.7966 -0.9929
 2502SOL    HW3 9781   2.014   0.638   0.194 -0.5432  1.6363  1.3336
 2502SOL    MW4 9782   2.046   0.602   0.267  0.1081 -0.1540 -0.2132
 2503SOL     OW 9783   5.248   0.445   0.435  0.1728  0.5463 -0.1259
 2503SOL    HW2 9784   5.301   0.522   0.455 -0.4917  0.9315  0.1605
 2503SOL    HW3 9785   5.311   0.382   0.399  0.4849  1.7696 -1.8692
 2503SOL    MW4 9786   5.263   0.447   0.433  0.1334 -0.2620 -0.1858
 2504SOL     OW 9787   5.039   2.080   6.098  0.5640  0.7617  0.1296
 2504SOL    HW2 9788   5.018   2.088   6.005 -0.4308  0.5468  0.3202
 2504SOL    HW3 9789   5.133   2.063   6.100  0.3601 -0.7518 -0.9409
 2504SOL    MW4 9790   5.048   2.078   6.086  0.5815  0.4533  0.2812
 2505SOL     OW 9791   0.320   2.251   5.451  0.7712 -0.1109  0.0742
 2505SOL    HW2 9792   0.282   2.202   5.524 -0.2789  0.2999 -0.1779
 2505SOL    HW3 9793   0.245   2.292   5.408  1.2837 -0.9200 -1.6786
 2505SOL    MW4 9794   0.306   2.250   5.455  0.3822 -0.5875 -0.0538
 2506SOL     OW 9795   0.910   0.049   4.898  0.6839 -0.0162  0.0149
 2506SOL    HW2 9796   0.981   0.064   4.836  1.0896  0.1401  0.5054
 2506SOL    HW3 9797   0.940   0.091   4.979 -0.7250  1.6259 -0.2400
 2506SOL    MW4 9798   0.924   0.057   4.901  0.2653 -0.5184 -0.0455
 2507SOL     OW 9799   3.788   0.817   3.400 -0.2451 -0.3293 -0.6658
 2507SOL    HW2 9800   3.798   0.797   3.493 -2.4399  1.0132 -0.0686
 2507SOL    HW3 9801   3.739   0.743   3.364  0.6731 -0.8871 -0.8044
 2507SOL    MW4 9802   3.783   0.805   3.408  0.1809  0.3764  0.3777
 2508SOL     OW 9803   0.872   2.336   0.808 -0.4361 -0.8007  0.2722
 2508SOL    HW2 9804   0.907   2.285   0.735 -1.0790  1.7927 -2.0348
 2508SOL    HW3 9805   0.894   2.285   0.886  1.3751 -3.1465 -1.6086
 2508SOL    MW4 9806   0.880   2.323   0.808 -0.5042  0.1802  0.2533
 2509SOL     OW 9807   5.609   0.348   4.140  0.4225  0.3672  0.5005
 2509SOL    HW2 9808   5.699   0.337   4.171  0.2503 -0.4875  0.7108
 2509SOL    HW3 9809   5.612   0.323   4.047  0.2241 -0.5631  0.7378
 2509SOL    MW4 9810   5.621   0.343   4.132 -0.5406 -0.1688  0.9994
 2510SOL     OW 9811   4.306   2.411   1.298  0.8298 -0.0801  0.0809
 2510SOL    HW2 9812   4.311   2.316   1.308  0.5249 -0.3601 -2.0854
 2510SOL    HW3 9813   4.396   2.442   1.310  0.8028 -0.4927  1.6456
 2510SOL    MW4 9814   4.318   2.403   1.301 -0.0244  0.0258  0.1145
 2511SOL     OW 9815   4.084   6.274   1.367  0.6201 -0.1856 -0.1342
 2511SOL    HW2 9816   4.086   6.183   1.338 -1.0887 -0.8924  1.7769
 2511SOL    HW3 9817   4.012   6.314   1.318 -0.4209 -0.6348  0.9738
 2511SOL    MW4 9818   4.075   6.267   1.357  0.4418 -0.0969  0.4864
 2512SOL     OW 9819   1.745   4.938   3.858 -0.2623  0.2856 -0.4945
 2512SOL    HW2 9820   1.718   4.852   3.892 -0.1265  1.2730  2.3191
 2512SOL    HW3 9821   1.706   5.001   3.918  0.9796  2.1593 -1.5581
 2512SOL    MW4 9822   1.736   4.935   3.870  0.5912 -0.3308 -0.7911
 2513SOL     OW 9823   2.312   2.903   3.304  0.4307  0.4752 -0.0550
 2513SOL    HW2 9824   2.402   2.886   3.331  0.3364  1.7184  1.1875
 2513SOL    HW3 9825   2.259   2.844   3.357  0.3059  2.3165  1.9930
 2513SOL    MW4 9826   2.316   2.893   3.314  0.2844  0.9542 -0.1089
 2514SOL     OW 9827   6.360   0.811   4.837  0.1341  0.1221  0.1225
 2514SOL    HW2 9828   6.377   0.765   4.919  0.0050  1.3067  0.8449
 2514SOL    HW3 9829   6.268   0.792   4.817  0.0107  0.2689  0.5449
 2514SOL    MW4 9830   6.350   0.802   4.845  0.0308 -0.1124  0.4317
 2515SOL     OW 9831   2.858   5.317   0.591 -0.2352  0.2926  0.2467
 2515SOL    HW2 9832   2.769   5.336   0.560 -0.6266  0.9151  1.6707
 2515SOL    HW3 9833   2.845   5.274   0.676  0.7988 -1.5069 -0.4527
 2515SOL    MW4 9834   2.845   5.314   0.598 -0.1612  0.1253 -0.0696
 2516SOL     OW 9835   4.129   4.282   2.123  0.4308  0.2511 -0.1345
 2516SOL    HW2 9836   4.073   4.222   2.074 -0.6462  1.7157 -0.8046
 2516SOL    HW3 9837   4.147   4.237   2.205 -2.0070 -0.2009  0.2407
 2516SOL    MW4 9838   4.124   4.268   2.127  0.3055  0.1570  0.1360
 2517SOL     OW 9839   3.798   4.887   1.929 -0.4040 -0.3452 -0.0813
 2517SOL    HW2 9840   3.771   4.803   1.965  2.4477 -1.4536 -0.3245
 2517SOL    HW3 9841   3.826   4.938   2.005 -0.7146 -0.1608 -0.0877
 2517SOL    MW4 9842   3.798   4.883   1.943  0.1575 -0.1307  0.1980
 2518SOL     OW 9843   2.651   1.542   3.798 -0.2244  0.5152 -0.4148
 2518SOL    HW2 9844   2.727   1.517   3.851 -1.2505 -1.1660  0.3354
 2518SOL    HW3 9845   2.666   1.502   3.713  0.0638  0.8071 -0.5043
 2518SOL    MW4 9846   2.663   1.534   3.794 -0.0212  0.4571 -0.1801
 2519SOL     OW 9847   5.484   1.583   0.827 -0.2630 -0.4797 -0.4052
 2519SOL    HW2 9848   5.503   1.493   0.801 -1.5106 -1.2701  1.2766
 2519SOL    HW3 9849   5.422   1.615   0.761  0.7122 -0.5816 -1.4012
 2519SOL    MW4 9850   5.478   1.575   0.815  0.4208  0.5664  0.4746
 2520SOL     OW 9851   2.961   2.104   5.381  0.4384  0.0241 -0.2090
 2520SOL    HW2 9852   3.016   2.177   5.412 -0.5088  1.1246 -1.0284
 2520SOL    HW3 9853   2.876   2.144   5.365  0.1892 -1.0389 -1.7400
 2520SOL    MW4 9854   2.957   2.119   5.383  0.3623  0.1807  0.1790
 2521SOL     OW 9855   4.130   4.900   3.301  0.3564 -0.3440 -0.0249
 2521SOL    HW2 9856   4.164   4.946   3.377 -1.1629  0.5350  0.1812
 2521SOL    HW3 9857   4.086   4.822   3.337 -1.3234  0.6390  0.1735
 2521SOL    MW4 9858   4.129   4.895   3.316 -0.0586 -0.1505 -0.3202
 2522SOL     OW 9859   1.297   2.326   3.112 -0.1124  0.2561 -0.0275
 2522SOL    HW2 9860   1.278   2.395   3.175 -0.2779  2.4183 -2.2923
 2522SOL    HW3 9861   1.215   2.278   3.102 -0.0628 -0.1673  1.3829
 2522SOL    MW4 9862   1.284   2.329   3.119  0.6605 -0.3386  0.2195
 2523SOL     OW 9863   5.581   0.515   1.840  0.6657  0.1086  0.3230
 2523SOL    HW2 9864   5.489   0.540   1.851  1.0532  2.7766 -1.3471
 2523SOL    HW3 9865   5.626   0.555   1.914  0.6372 -0.1710  0.4922
 2523SOL    MW4 9866   5.574   0.524   1.851  0.6053 -0.1083 -0.3784
 2524SOL     OW 9867   1.454   5.100   1.943 -0.5195 -0.3740  0.4881
 2524SOL    HW2 9868   1.382   5.081   2.004 -0.1068 -0.5950  0.9140
 2524SOL    HW3 9869   1.445   5.035   1.874 -0.2447 -0.9226  0.9626
 2524SOL    MW4 9870   1.443   5.089   1.942 -0.2336  0.6922 -0.4599
 2525SOL     OW 9871   3.979   5.631   5.267  0.4817 -0.0057  0.5389
 2525SOL    HW2 9872   4.058   5.659   5.221  1.3274 -0.6155  1.5643
 2525SOL    HW3 9873   4.004   5.632   5.360 -1.2132  1.3687  1.0315
 2525SOL    MW4 9874   3.993   5.635   5.273  0.1399 -0.0986 -0.8458
 2526SOL     OW 9875   2.342   1.520   3.178  0.2690  0.2915  0.0291
 2526SOL    HW2 9876   2.257   1.539   3.218 -0.4640 -1.9583 -0.3434
 2526SOL    HW3 9877   2.330   1.543   3.086 -0.0290 -0.2232 -0.0662
 2526SOL    MW4 9878   2.329   1.526   3.171 -0.3228 -0.1230  0.5114
 2527SOL     OW 9879   4.714   1.673   2.210  0.6318  0.3156  0.3495
 2527SOL    HW2 9880   4.770   1.744   2.241  0.2775  0.0018  1.7430
 2527SOL    HW3 9881   4.636   1.677   2.265  1.2351 -2.0897  1.5039
 2527SOL    MW4 9882   4.711   1.683   2.221 -0.3657  0.1022  0.2784
 2528SOL     OW 9883   3.771   4.883   1.641  0.2718  0.1991  0.0188
 2528SOL    HW2 9884   3.703   4.816   1.631 -1.1596  1.7025 -0.9764
 2528SOL    HW3 9885   3.805   4.870   1.729  1.0511 -2.6865 -0.5948
 2528SOL    MW4 9886   3.766   4.872   1.651  0.3629  0.3099 -0.3998
 2529SOL     OW 9887   1.206   4.417   0.313  0.6910 -0.5547  0.8152
 2529SOL    HW2 9888   1.287   4.393   0.268  1.5975  2.2899  0.7394
 2529SOL    HW3 9889   1.236   4.455   0.397 -0.3287  2.1477  0.0661
 2529SOL    MW4 9890   1.221   4.419   0.318  0.1134 -0.4270 -0.2455
 2530SOL     OW 9891   4.509   4.266   5.086  0.1832  0.1086  0.2825
 2530SOL    HW2 9892   4.440   4.290   5.148  0.9171  0.4328  0.9934
 2530SOL    HW3 9893   4.500   4.171   5.077 -1.5449  0.3466 -1.1130
 2530SOL    MW4 9894   4.499   4.256   5.093 -0.0108 -0.4043 -0.2973
 2531SOL     OW 9895   1.970   2.535   6.213  0.1349 -0.1450  0.2019
 2531SOL    HW2 9896   1.950   2.553   6.305  0.4510 -1.6805  0.6073
 2531SOL    HW3 9897   1.972   2.439   6.208  1.1377 -0.0719 -1.1886
 2531SOL    MW4 9898   1.967   2.525   6.224 -0.1074 -0.6418 -0.6270
 2532SOL     OW 9899   2.828   1.693   1.197  0.1591  0.1116 -0.1078
 2532SOL    HW2 9900   2.752   1.746   1.174 -0.4992 -0.3635  0.8784
 2532SOL    HW3 9901   2.875   1.744   1.263 -1.2623 -1.0606  1.9417
 2532SOL    MW4 9902   2.825   1.706   1.203  0.2701 -0.2705  0.2428
 2533SOL     OW 9903   3.590   0.317   1.389  0.1536  0.6059 -0.2622
 2533SOL    HW2 9904   3.593   0.394   1.332  0.4997  0.1893 -0.8087
 2533SOL    HW3 9905   3.513   0.269   1.361  1.0072 -0.2495 -1.2503
 2533SOL    MW4 9906   3.580   0.321   1.378 -0.1409  0.2491 -0.6650
 2534SOL     OW 9907   0.554   2.536   0.169 -0.4600  0.0004  0.2550
 2534SOL    HW2 9908   0.506   2.613   0.200 -1.7660 -0.6765 -0.0127
 2534SOL    HW3 9909   0.578   2.490   0.249  1.0373  1.0668  0.4568
 2534SOL    MW4 9910   0.550   2.540   0.184  0.0543  0.2439 -0.0776
 2535SOL     OW 9911   0.205   6.267   0.651 -0.4245  0.1182  0.0779
 2535SOL    HW2 9912   0.216   6.200   0.718 -0.9757 -0.7559 -0.6859
 2535SOL    HW3 9913   0.241   6.228   0.571 -3.5988 -0.5881 -1.1439
 2535SOL    MW4 9914   0.211   6.253   0.649  0.0371 -0.6319  0.8179
 2536SOL     OW 9915   0.478   4.298   5.931 -0.0439  0.2602 -0.0081
 2536SOL    HW2 9916   0.439   4.385   5.916 -2.8992 -0.8867  0.0512
 2536SOL    HW3 9917   0.477   4.289   6.027 -0.1501  0.0238 -0.0316
 2536SOL    MW4 9918   0.473   4.309   5.942  0.3488  0.3631 -0.1527
 2537SOL     OW 9919   3.202   4.229   0.852 -0.5109 -0.1052  0.0015
 2537SOL    HW2 9920   3.124   4.269   0.890  0.8760  0.6241  2.2976
 2537SOL    HW3 9921   3.272   4.290   0.872  0.9593 -1.6333 -0.2460
 2537SOL    MW4 9922   3.201   4.242   0.860  0.0589  0.3021 -0.5127
 2538SOL     OW 9923   5.405   1.137   0.130 -0.0071  0.3989 -0.4703
 2538SOL    HW2 9924   5.430   1.195   0.058  1.9015  0.4889  0.1968
 2538SOL    HW3 9925   5.311   1.124   0.118  0.1281  0.8645 -2.6334
 2538SOL    MW4 9926   5.396   1.143   0.119  0.5662  0.2738  0.1420
 2539SOL     OW 9927   3.332   6.022   6.371  0.3245  0.1750  0.0573
 2539SOL    HW2 9928   3.303   6.056   6.456 -2.7542 -0.9837 -0.3879
 2539SOL    HW3 9929   3.385   5.945   6.393  1.2217  1.0004  0.9111
 2539SOL    MW4 9930   3.335   6.016   6.385 -0.4565 -0.4415 -0.0511
 2540SOL     OW 9931   5.257   4.976   4.430  0.7004 -0.0202 -0.2690
 2540SOL    HW2 9932   5.323   4.995   4.497  0.1392 -1.7317  0.8456
 2540SOL    HW3 9933   5.175   4.971   4.479  0.0330  0.1657 -1.3450
 2540SOL    MW4 9934   5.255   4.978   4.445  0.4692 -0.2495 -0.5287
 2541SOL     OW 9935   5.773   0.531   2.709  0.2037  0.3509 -0.1447
 2541SOL    HW2 9936   5.692   0.582   2.707 -0.2429 -0.2956  0.7264
 2541SOL    HW3 9937   5.790   0.517   2.802  0.1497 -1.3158 -0.3560
 2541SOL    MW4 9938   5.764   0.536   2.721 -0.8843 -0.1740 -0.2550
 2542SOL     OW 9939   1.931   5.137   3.759  0.7373  0.3194 -0.0258
 2542SOL    HW2 9940   1.924   5.064   3.698 -1.2388 -0.0666  0.5743
 2542SOL    HW3 9941   1.841   5.150   3.790  1.1247  2.6739  0.2776
 2542SOL    MW4 9942   1.918   5.129   3.755 -0.1396  0.5749 -0.3373
 2543SOL     OW 9943   4.753   3.039   6.021  0.0822  0.1641  0.6499
 2543SOL    HW2 9944   4.692   3.094   5.972 -1.2193  0.2311  2.2463
 2543SOL    HW3 9945   4.835   3.045   5.972 -1.3750 -0.6414 -2.0817
 2543SOL    MW4 9946   4.756   3.047   6.008  0.0824  0.1360 -0.1689
 2544SOL     OW 9947   0.602   5.431   3.707 -0.0261  0.1208 -0.1869
 2544SOL    HW2 9948   0.684   5.397   3.672  0.9699 -0.0286  2.0871
 2544SOL    HW3 9949   0.627   5.475   3.789 -1.9634  1.8842 -0.4560
 2544SOL    MW4 9950   0.616   5.432   3.713 -0.6378  0.7170 -0.0354
 2545SOL     OW 9951   4.427   6.140   1.423  0.4235  0.6565  0.2690
 2545SOL    HW2 9952   4.490   6.085   1.376  0.8393  1.0740  0.3263
 2545SOL    HW3 9953   4.361   6.079   1.456  0.2851  0.3218 -0.6032
 2545SOL    MW4 9954   4.427   6.124   1.421 -0.4349 -0.2333 -0.1351
 2546SOL     OW 9955   4.099   4.559   3.903  0.6217 -0.3242  0.3802
 2546SOL    HW2 9956   4.143   4.561   3.818 -0.6166  0.1167 -0.2778
 2546SOL    HW3 9957   4.006   4.545   3.882  0.3436 -0.6016  1.6847
 2546SOL    MW4 9958   4.092   4.557   3.889 -0.1135  0.2170 -0.0169
 2547SOL     OW 9959   4.350   4.035   5.546 -0.2436  0.3293 -0.0432
 2547SOL    HW2 9960   4.433   4.004   5.580 -0.4417 -0.6048 -0.3764
 2547SOL    HW3 9961   4.338   4.121   5.585 -0.2748 -0.5218  1.9269
 2547SOL    MW4 9962   4.359   4.042   5.556 -0.3302  0.4274  0.1163
 2548SOL     OW 9963   1.068   3.740   2.641 -0.4228 -0.1551 -0.1905
 2548SOL    HW2 9964   1.037   3.705   2.557 -1.6728 -1.3715  0.7309
 2548SOL    HW3 9965   1.001   3.714   2.704  1.2848 -0.6951  1.4788
 2548SOL    MW4 9966   1.055   3.732   2.638  0.2448 -0.1224  0.4570
 2549SOL     OW 9967   2.602   5.901   6.359 -0.5020 -0.2282 -0.3243
 2549SOL    HW2 9968   2.540   5.974   6.364  1.0655  1.1343  0.0394
 2549SOL    HW3 9969   2.615   5.887   6.266 -0.3769  0.3439 -0.3950
 2549SOL    MW4 9970   2.595   5.908   6.348 -0.4066 -0.5479 -0.2073
 2550SOL     OW 9971   4.964   4.064   0.374 -0.3393  0.6860  0.0707
 2550SOL    HW2 9972   4.963   4.000   0.303  0.3203 -0.5705  1.1558
 2550SOL    HW3 9973   4.873   4.091   0.383 -1.0726 -1.8144  1.0478
 2550SOL    MW4 9974   4.952   4.059   0.366  0.0613  0.3289 -0.2479
 2551SOL     OW 9975   0.723   4.360   4.751 -0.6224 -0.0752 -0.5136
 2551SOL    HW2 9976   0.797   4.303   4.731 -0.4019  1.0749 -3.6959
 2551SOL    HW3 9977   0.654   4.301   4.781  0.8316 -1.4537  0.2774
 2551SOL    MW4 9978   0.724   4.345   4.752  0.0141 -0.2728  0.4002
 2552SOL     OW 9979   4.302   1.291   1.874 -0.4705  0.1670  0.4257
 2552SOL    HW2 9980   4.397   1.276   1.876 -0.3198  0.2617 -2.1732
 2552SOL    HW3 9981   4.279   1.281   1.781 -3.1573 -0.6867  1.1233
 2552SOL    MW4 9982   4.312   1.288   1.862 -0.0648 -0.3566 -0.0572
 2553SOL     OW 9983   0.427   4.545   3.542 -0.7603 -0.2937 -0.3635
 2553SOL    HW2 9984   0.397   4.556   3.452  2.1059 -2.7526 -1.7545
 2553SOL    HW3 9985   0.494   4.612   3.554 -0.1436 -0.8569 -0.5907
 2553SOL    MW4 9986   0.432   4.555   3.532  0.0595 -0.4232 -0.5902
 2554SOL     OW 9987   0.874   0.596   0.549  0.2974  0.1190 -0.0832
 2554SOL    HW2 9988   0.833   0.536   0.611 -0.1754 -0.4804 -0.9616
 2554SOL    HW3 9989   0.804   0.658   0.527 -0.6206 -1.6615 -2.5724
 2554SOL    MW4 9990   0.859   0.596   0.554 -0.1170  0.0305  0.1664
 2555SOL     OW 9991   6.376   2.265   0.133 -0.0626 -0.2531  0.1613
 2555SOL    HW2 9992   6.433   2.246   0.059 -0.2214  0.7757 -0.2431
 2555SOL    HW3 9993   6.304   2.203   0.124 -1.4387  1.5221 -2.1011
 2555SOL    MW4 9994   6.374   2.254   0.122  0.2390  0.0864  0.1969
 2556SOL     OW 9995   5.727   5.233   2.721 -0.4330 -0.0867  0.3091
 2556SOL    HW2 9996   5.646   5.193   2.753 -1.7797 -4.2178 -6.1252
 2556SOL    HW3 9997   5.698   5.301   2.660  0.8496 -0.6959 -1.0636
 2556SOL    MW4 9998   5.712   5.236   2.717 -0.7548 -0.0587 -0.6703
 2557SOL     OW 9999   1.478   3.334   4.822 -0.4413  1.1102 -0.1517
 2557SOL    HW210000   1.535   3.410   4.834 -0.3441  1.3326 -1.7582
 2557SOL    HW310001   1.467   3.328   4.727  0.6370 -1.6554 -0.1981
 2557SOL    MW410002   1.484   3.343   4.811  0.0552 -0.3516  0.8082
 2558SOL     OW10003   0.925   2.375   2.613 -0.6019 -0.1661  0.9198
 2558SOL    HW210004   0.947   2.453   2.562 -2.3397 -0.0593  0.2653
 2558SOL    HW310005   0.846   2.399   2.661 -2.3291 -2.0768 -0.7657
 2558SOL    MW410006   0.917   2.388   2.612  0.5295 -0.1274  0.0252
 2559SOL     OW10007   4.107   2.078   4.056  0.3400  0.1657 -0.0009
 2559SOL    HW210008   4.055   2.001   4.079 -1.0334  0.6687 -1.2573
 2559SOL    HW310009   4.198   2.047   4.058  0.1206 -0.5676  2.9036
 2559SOL    MW410010   4.112   2.063   4.059  0.2863 -0.0847  0.2941
 2560SOL     OW10011   0.674   3.940   2.560  0.1715 -0.1354 -0.1426
 2560SOL    HW210012   0.666   3.966   2.468 -0.6319  1.2934  0.3021
 2560SOL    HW310013   0.759   3.973   2.587  0.2614 -0.2596 -0.2677
 2560SOL    MW410014   0.684   3.947   2.551  0.4377 -0.1426 -0.8727
 2561SOL     OW10015   1.010   1.775   1.758 -0.1465  0.4965 -0.0665
 2561SOL    HW210016   0.970   1.797   1.843 -2.4985  0.5024 -1.0798
 2561SOL    HW310017   1.044   1.687   1.769 -0.4160  0.5029  0.8931
 2561SOL    MW410018   1.009   1.767   1.771 -0.2384 -0.3756  0.3447
 2562SOL     OW10019   0.264   1.902   5.108  0.0640 -0.4505  0.2302
 2562SOL    HW210020   0.314   1.934   5.184  0.3318  0.1918 -0.2038
 2562SOL    HW310021   0.190   1.963   5.102 -0.4591 -1.0517  0.5215
 2562SOL    MW410022   0.261   1.914   5.117  0.9228  0.4769 -0.0622
 2563SOL     OW10023   2.963   3.604   6.315 -0.3472  0.4969  0.3905
 2563SOL    HW210024   2.904   3.582   6.242 -0.4242  2.9255 -0.3733
 2563SOL    HW310025   3.051   3.596   6.278 -0.1203 -2.2271  1.2733
 2563SOL    MW410026   2.967   3.600   6.300 -0.1211  0.0393 -0.2705
 2564SOL     OW10027   3.112   1.701   1.685 -0.4989 -0.1152  0.0120
 2564SOL    HW210028   3.135   1.793   1.699  0.4535 -0.4424  0.6893
 2564SOL    HW310029   3.179   1.668   1.626 -0.5224 -0.5067  0.1980
 2564SOL    MW410030   3.124   1.709   1.679 -0.0018 -0.2617 -0.4396
 2565SOL     OW10031   1.363   5.349   5.482  0.4233 -0.2795 -0.8452
 2565SOL    HW210032   1.341   5.411   5.412 -0.3860  0.8411  0.3428
 2565SOL    HW310033   1.456   5.365   5.500  0.0385  1.2756  0.0231
 2565SOL    MW410034   1.372   5.360   5.475  0.2544 -0.1072  0.6625
 2566SOL     OW10035   5.465   4.568   0.937  0.6762 -0.2561  0.0885
 2566SOL    HW210036   5.390   4.525   0.978  1.4375 -1.2016  0.5277
 2566SOL    HW310037   5.429   4.648   0.900 -0.4361 -0.3972  0.8101
 2566SOL    MW410038   5.450   4.573   0.937 -0.8798 -0.3508  0.4401
 2567SOL     OW10039   0.126   5.188   5.110  0.1179  0.2768 -0.7875
 2567SOL    HW210040   0.108   5.243   5.034 -0.6769  1.5506  0.2854
 2567SOL    HW310041   0.215   5.213   5.137 -0.2976  1.1865 -0.2124
 2567SOL    MW410042   0.136   5.198   5.104  0.0450 -0.1354  0.7213
 2568SOL     OW10043   2.321   5.643   6.310 -0.0355 -0.0084  0.4857
 2568SOL    HW210044   2.327   5.692   6.228 -0.6144  1.6834  1.4154
 2568SOL    HW310045   2.332   5.551   6.284 -1.8222  0.3230 -1.6881
 2568SOL    MW410046   2.323   5.637   6.296  0.3383 -0.2363 -0.0962
 2569SOL     OW10047   1.742   1.979   4.829 -0.5934 -0.2678  0.0459
 2569SOL    HW210048   1.736   2.021   4.915 -1.4043  1.7715 -0.9505
 2569SOL    HW310049   1.822   1.926   4.834  0.2397  1.0444  1.5416
 2569SOL    MW410050   1.752   1.978   4.841  0.5693  0.2810  0.0032
 2570SOL     OW10051   4.686   5.196   4.179  0.4177 -0.0769  0.2982
 2570SOL    HW210052   4.733   5.230   4.255  0.2093  1.1347 -0.0843
 2570SOL    HW310053   4.607   5.250   4.173  0.2722 -0.3583 -0.5856
 2570SOL    MW410054   4.681   5.208   4.188  0.5215  0.3064  0.3404
 2571SOL     OW10055   5.998   2.832   5.361 -0.2747  0.4510 -0.1260
 2571SOL    HW210056   6.046   2.906   5.323 -1.5313  0.7951 -1.1277
 2571SOL    HW310057   6.055   2.757   5.345  1.1049  1.1863  1.0534
 2571SOL    MW410058   6.012   2.832   5.354 -0.5879 -0.8594  0.2417
 2572SOL     OW10059   1.993   0.178   2.696  0.2751 -0.0931  0.4260
 2572SOL    HW210060   2.011   0.271   2.685  0.9615 -0.0959  1.3608
 2572SOL    HW310061   2.063   0.135   2.646  0.5756 -0.1009  0.8475
 2572SOL    MW410062   2.005   0.184   2.688  0.0391 -0.6358  0.1663
 2573SOL     OW10063   0.669   2.808   5.857 -0.2242 -0.3208  0.1233
 2573SOL    HW210064   0.683   2.894   5.898 -0.3080  0.0187 -0.5395
 2573SOL    HW310065   0.609   2.763   5.916 -1.6538  0.7874 -0.4308
 2573SOL    MW410066   0.663   2.814   5.871  0.1515 -0.9507  0.1467
 2574SOL     OW10067   3.384   4.369   5.651  0.4985 -0.2464 -0.2134
 2574SOL    HW210068   3.477   4.390   5.645  0.2099  1.1578 -0.1101
 2574SOL    HW310069   3.353   4.420   5.726 -0.2735 -1.0454  0.0298
 2574SOL    MW410070   3.392   4.379   5.660  0.7747 -0.7802 -0.4041
 2575SOL     OW10071   3.005   1.288   5.197  0.0931 -0.5848 -0.3591
 2575SOL    HW210072   2.994   1.348   5.122  0.4210 -0.8330 -0.6095
 2575SOL    HW310073   2.928   1.303   5.251  1.0229  1.3901  0.5229
 2575SOL    MW410074   2.993   1.298   5.194 -0.5833 -0.3643  0.5270
 2576SOL     OW10075   0.750   1.981   0.498 -0.3958  0.0296  0.4585
 2576SOL    HW210076   0.724   1.967   0.589  0.8640 -0.6709  0.7360
 2576SOL    HW310077   0.752   1.894   0.459 -1.0823  0.3374 -0.3097
 2576SOL    MW410078   0.747   1.968   0.505 -0.7447 -0.1523 -0.2400
 2577SOL     OW10079   5.420   5.067   3.818 -0.3230  0.4694 -0.6221
 2577SOL    HW210080   5.451   5.145   3.773 -0.7317 -0.2858 -2.2769
 2577SOL    HW310081   5.325   5.077   3.822 -0.2714  0.6670  0.3802
 2577SOL    MW410082   5.412   5.078   3.813  0.1238  0.1924  0.3572
 2578SOL     OW10083   2.104   2.831   2.853  0.2790  0.5133 -0.4561
 2578SOL    HW210084   2.131   2.757   2.798 -0.9356 -1.1387  1.0379
 2578SOL    HW310085   2.185   2.860   2.895  0.6682 -0.5425 -0.4355
 2578SOL    MW410086   2.118   2.825   2.852 -0.1386  0.2669 -0.3361
 2579SOL     OW10087   4.015   4.792   4.048  0.0751  0.0685 -0.2880
 2579SOL    HW210088   4.033   4.704   4.013 -1.7631 -0.3455 -0.2815
 2579SOL    HW310089   4.001   4.778   4.141 -1.0593  0.2236 -0.4255
 2579SOL    MW410090   4.016   4.778   4.055 -0.0740 -0.0306  0.1380
 2580SOL     OW10091   3.473   0.871   3.168  0.1528  0.2238 -0.1327
 2580SOL    HW210092   3.379   0.881   3.153  0.0378 -0.8601 -0.1866
 2580SOL    HW310093   3.514   0.913   3.092 -0.3059 -0.1050 -0.5695
 2580SOL    MW410094   3.466   0.878   3.156 -0.0665  0.0855  0.1404
 2581SOL     OW10095   6.103   6.028   6.142  1.1366 -0.7795 -0.1687
 2581SOL    HW210096   6.194   6.053   6.159  1.1197 -1.2863  0.7088
 2581SOL    HW310097   6.110   5.950   6.087  1.2367 -0.8806 -0.0136
 2581SOL    MW410098   6.116   6.021   6.137 -0.1878  0.2142  0.1859
 2582SOL     OW10099   4.242   6.200   3.420 -0.0656  0.4874  0.2176
 2582SOL    HW210100   4.307   6.220   3.353  0.1429 -0.5469  0.0833
 2582SOL    HW310101   4.237   6.104   3.420 -2.5598  0.5631 -0.6962
 2582SOL    MW410102   4.250   6.190   3.411  0.1521  0.4159 -0.3005
 2583SOL     OW10103   0.034   4.449   2.128  1.0002 -0.2270  0.2387
 2583SOL    HW210104  -0.004   4.408   2.050  0.6194  0.3249  0.1206
 2583SOL    HW310105   0.114   4.400   2.145  1.2372 -0.1782 -0.6709
 2583SOL    MW410106   0.039   4.437   2.120  0.2514  0.0356 -0.7992
 2584SOL     OW10107   5.590   5.771   0.021 -0.7771  0.1489  0.0647
 2584SOL    HW210108   5.516   5.803  -0.031 -0.0117  1.9808  0.0206
 2584SOL    HW310109   5.662   5.766  -0.042 -1.2763 -3.7115 -0.3978
 2584SOL    MW410110   5.590   5.775   0.006  0.1682 -0.1826  0.0679
 2585SOL     OW10111   1.455   4.681   0.217 -0.0873  0.1301  0.2435
 2585SOL    HW210112   1.508   4.691   0.138  1.2867 -0.9469  0.9808
 2585SOL    HW310113   1.369   4.714   0.192  0.2772 -0.2579 -1.7361
 2585SOL    MW410114   1.451   4.687   0.203 -0.2239  0.7991  0.6868
 2586SOL     OW10115   2.267   6.128   3.334  0.6814 -0.0014 -0.2830
 2586SOL    HW210116   2.179   6.097   3.315  0.1167  1.0894  0.4646
 2586SOL    HW310117   2.315   6.050   3.363  0.3815 -0.8762 -1.9983
 2586SOL    MW410118   2.262   6.114   3.335 -0.2962  0.0886  0.3315
 2587SOL     OW10119   0.668   5.730   3.099  0.4174  0.4414  0.1328
 2587SOL    HW210120   0.623   5.660   3.146 -0.4253  0.1944 -1.0152
 2587SOL    HW310121   0.606   5.802   3.098 -0.2970 -0.1539 -2.1133
 2587SOL    MW410122   0.654   5.731   3.105 -0.5764 -0.2942 -0.2383
 2588SOL     OW10123   5.929   3.750   2.006 -0.0861  0.1337 -0.2773
 2588SOL    HW210124   5.900   3.818   2.066 -0.2817  1.2776 -1.6064
 2588SOL    HW310125   5.859   3.684   2.009  0.6109 -0.6022  1.8276
 2588SOL    MW410126   5.916   3.750   2.014  0.0467 -0.5333  0.0562
 2589SOL     OW10127   0.086   5.299   2.492  0.4964 -0.0216  0.2822
 2589SOL    HW210128   0.143   5.261   2.425  0.3927 -1.0018  0.7316
 2589SOL    HW310129   0.026   5.228   2.515  0.0456  0.5435  0.8669
 2589SOL    MW410130   0.086   5.285   2.486  0.2131  0.4774  0.0621
 2590SOL     OW10131   5.162   1.995   1.912  0.6808 -0.0718 -0.5425
 2590SOL    HW210132   5.096   2.052   1.952 -0.1183 -0.5456 -1.1519
 2590SOL    HW310133   5.229   1.984   1.979 -0.7894 -1.1291  0.8320
 2590SOL    MW410134   5.162   2.001   1.926 -0.3016  0.5200  0.0862
 2591SOL     OW10135   2.980   0.225   0.047  0.0189  0.1976  0.1179
 2591SOL    HW210136   3.008   0.173  -0.029  0.4230  0.7329 -0.1053
 2591SOL    HW310137   2.964   0.312   0.012  1.1338  0.6933  0.8068
 2591SOL    MW410138   2.982   0.229   0.032 -0.0073 -0.0863  0.1851
 2592SOL     OW10139   3.419   4.379   4.097 -0.0163  0.6592  0.4296
 2592SOL    HW210140   3.501   4.426   4.086 -0.2830  0.7826 -1.1752
 2592SOL    HW310141   3.351   4.444   4.082 -0.4211  0.4200  1.1555
 2592SOL    MW410142   3.421   4.394   4.094  0.0659 -0.4929  0.1261
 2593SOL     OW10143   5.096   0.891   2.767  0.6369 -0.2736 -0.0773
 2593SOL    HW210144   5.184   0.928   2.778  0.4640 -0.3789  2.2156
 2593SOL    HW310145   5.046   0.960   2.724  1.2130  0.8519  0.9696
 2593SOL    MW410146   5.101   0.905   2.763 -0.4579  0.0433 -0.0427
 2594SOL     OW10147   0.686   2.112   4.968 -0.1417  0.0734 -0.0305
 2594SOL    HW210148   0.696   2.162   4.887 -0.7953  0.2235 -0.0253
 2594SOL    HW310149   0.597   2.131   4.997 -0.9925 -2.3221 -0.8636
 2594SOL    MW410150   0.676   2.121   4.961 -0.0848 -0.3568  0.1763
 2595SOL     OW10151   3.143   2.011   6.231 -0.3173  0.1343 -0.6795
 2595SOL    HW210152   3.229   1.971   6.221 -0.0140 -0.1035  2.0549
 2595SOL    HW310153   3.140   2.080   6.165  0.7911 -1.6668 -2.7385
 2595SOL    MW410154   3.154   2.015   6.221  0.2632 -0.8018  0.9464
 2596SOL     OW10155   0.349   5.868   1.534 -0.1290  0.2148 -0.2150
 2596SOL    HW210156   0.324   5.784   1.495 -0.2179 -0.6936  1.6817
 2596SOL    HW310157   0.424   5.897   1.483  0.1974 -1.2485 -0.6092
 2596SOL    MW410158   0.355   5.861   1.522  0.1762 -0.2000 -0.6141
 2597SOL     OW10159   1.900   3.433   4.911  0.3275  0.5000 -0.2954
 2597SOL    HW210160   1.843   3.488   4.965 -0.5823 -0.6745 -0.0098
 2597SOL    HW310161   1.851   3.419   4.831  1.6988  2.2774 -1.5122
 2597SOL    MW410162   1.886   3.438   4.908 -0.2984 -0.1469 -0.3937
 2598SOL     OW10163   0.158   0.353   2.443 -0.3427 -0.2073  0.0473
 2598SOL    HW210164   0.101   0.427   2.424 -0.1615 -0.4600 -1.6261
 2598SOL    HW310165   0.245   0.392   2.451 -0.1467 -0.2762 -1.4616
 2598SOL    MW410166   0.162   0.368   2.442  0.0758 -0.0165 -0.4212
 2599SOL     OW10167   6.160   2.484   4.261  0.2701  0.1329 -0.0874
 2599SOL    HW210168   6.193   2.511   4.347 -0.0842  0.3821 -0.0240
 2599SOL    HW310169   6.091   2.421   4.281  0.9784 -0.7155 -0.2318
 2599SOL    MW410170   6.155   2.479   4.275  0.1764  0.4243 -0.3513
 2600SOL     OW10171   6.250   2.164   5.425  0.0452  0.6068  0.6288
 2600SOL    HW210172   6.288   2.116   5.499  0.0823  1.5653  1.2451
 2600SOL    HW310173   6.174   2.111   5.400  0.3612 -0.0295  0.9703
 2600SOL    MW410174   6.245   2.150   5.432 -0.0525  0.3041 -0.1413
 2601SOL     OW10175   4.459   5.824   1.554 -0.1555  0.3005  0.0059
 2601SOL    HW210176   4.496   5.749   1.507 -0.7956 -0.3039  0.4522
 2601SOL    HW310177   4.365   5.820   1.535 -0.1447  1.1970 -0.2523
 2601SOL    MW410178   4.451   5.813   1.545  0.2510  0.3377 -0.4416
 2602SOL     OW10179   4.338   3.270   5.156  0.6015  0.0523 -0.4216
 2602SOL    HW210180   4.284   3.279   5.078 -2.0788 -1.1854  1.1635
 2602SOL    HW310181   4.278   3.243   5.224  3.0035  0.1339  1.8944
 2602SOL    MW410182   4.323   3.267   5.154 -0.4895  0.2698  0.2072
 2603SOL     OW10183   3.149   6.093   2.926 -0.0794  0.0572 -0.2814
 2603SOL    HW210184   3.228   6.047   2.953 -0.3288 -0.0480  0.2711
 2603SOL    HW310185   3.160   6.105   2.831  0.8233  0.5028 -0.1289
 2603SOL    MW410186   3.161   6.088   2.917 -0.8081 -0.4023 -0.3310
 2604SOL     OW10187   1.179   5.406   5.002  0.5448 -0.3512 -0.5113
 2604SOL    HW210188   1.194   5.389   4.909  1.6319  1.5915 -0.7612
 2604SOL    HW310189   1.110   5.472   5.003  0.3966 -0.5133  0.0774
 2604SOL    MW410190   1.172   5.413   4.990 -0.6205 -0.5210 -0.2320
 2605SOL     OW10191   0.028   5.542   3.719 -0.3050  0.0639  0.2441
 2605SOL    HW210192  -0.063   5.570   3.719 -0.4009 -0.1579 -1.6021
 2605SOL    HW310193   0.039   5.493   3.638  1.3476 -0.3059  0.6479
 2605SOL    MW410194   0.018   5.540   3.709 -0.0803  0.0860 -0.5144
 2606SOL     OW10195   1.175   6.059   1.325 -0.2916 -0.1202  0.0499
 2606SOL    HW210196   1.167   6.031   1.417  1.9185  0.1954  0.3747
 2606SOL    HW310197   1.205   5.980   1.279 -2.8545 -0.7300 -0.7685
 2606SOL    MW410198   1.178   6.045   1.331 -0.5555 -0.6147  0.0837
 2607SOL     OW10199   6.043   5.837   4.310 -0.3016 -0.0915 -0.4906
 2607SOL    HW210200   6.065   5.866   4.399 -1.2394 -2.1166  0.4799
 2607SOL    HW310201   6.015   5.917   4.265  0.6250  1.0574  0.8792
 2607SOL    MW410202   6.042   5.851   4.316 -0.5688  0.0028 -0.2770
 2608SOL     OW10203   3.289   0.129   1.619  0.5397  0.2230 -0.3138
 2608SOL    HW210204   3.283   0.035   1.606  1.9977 -0.4157  2.7690
 2608SOL    HW310205   3.201   0.156   1.645  0.2131 -0.3129 -0.8341
 2608SOL    MW410206   3.277   0.120   1.620  0.1350 -0.0079  0.1915
 2609SOL     OW10207   4.542   0.600   6.083  0.0198 -0.5640  0.3136
 2609SOL    HW210208   4.610   0.539   6.055  0.5537 -0.9044  2.2061
 2609SOL    HW310209   4.585   0.686   6.085 -0.6394 -0.1121 -2.0133
 2609SOL    MW410210   4.556   0.604   6.080 -0.0715  0.2068  0.7555
 2610SOL     OW10211   2.917   4.213   5.121 -0.3641 -0.6440 -0.0976
 2610SOL    HW210212   2.947   4.188   5.034 -1.8432  0.3751 -0.9508
 2610SOL    HW310213   2.848   4.277   5.105  2.6334  3.5910  1.7995
 2610SOL    MW410214   2.912   4.218   5.108 -0.5911 -0.1572  0.8992
 2611SOL     OW10215   2.949   5.738   5.675  0.3990  0.1207 -0.0474
 2611SOL    HW210216   2.956   5.833   5.672  1.6198  0.1540  1.9237
 2611SOL    HW310217   2.901   5.720   5.756  1.1559 -0.9370  0.1911
 2611SOL    MW410218   2.944   5.748   5.686 -0.1883  0.7331  0.3211
 2612SOL     OW10219   2.507   1.932   5.635 -0.2182 -0.2412  0.0328
 2612SOL    HW210220   2.455   1.857   5.662  0.7067 -1.1888 -0.7351
 2612SOL    HW310221   2.577   1.895   5.581  1.2448  0.9855  1.0068
 2612SOL    MW410222   2.510   1.917   5.631 -0.5367  0.1551  0.1737
 2613SOL     OW10223   1.939   5.393   5.583  0.3140  0.0175 -0.5944
 2613SOL    HW210224   1.852   5.355   5.579  0.2245 -0.0549  1.2346
 2613SOL    HW310225   1.972   5.369   5.670  1.5501  1.3548 -0.6569
 2613SOL    MW410226   1.932   5.385   5.593 -0.7379  0.3189  0.2096
 2614SOL     OW10227   5.229   6.356   0.148 -0.3537 -0.0272 -0.6014
 2614SOL    HW210228   5.306   6.314   0.111  0.8762  0.5407  1.1679
 2614SOL    HW310229   5.169   6.283   0.167  0.0241 -0.5447 -1.3604
 2614SOL    MW410230   5.231   6.341   0.146 -0.1760 -0.1044  0.0209
 2615SOL     OW10231   2.983   4.334   0.988  0.3253  0.6248  0.0618
 2615SOL    HW210232   3.057   4.349   1.047  0.2735 -0.4610  0.4184
 2615SOL    HW310233   2.982   4.411   0.931  2.8229 -0.1196 -1.1162
 2615SOL    MW410234   2.992   4.346   0.988 -0.4687 -0.1690 -0.4038
 2616SOL     OW10235   4.682   2.651   2.446 -0.2333 -0.5783 -0.3793
 2616SOL    HW210236   4.681   2.744   2.423  0.9641 -0.1460  1.0885
 2616SOL    HW310237   4.606   2.640   2.504 -0.5043 -0.5735 -0.7305
 2616SOL    MW410238   4.672   2.662   2.451  0.6286 -0.0404 -0.3450
 2617SOL     OW10239   4.698   3.130   4.557  0.0986  0.0551 -0.1713
 2617SOL    HW210240   4.780   3.122   4.508  0.4158 -1.8710  0.5889
 2617SOL    HW310241   4.725   3.129   4.649 -0.6926  0.9697  0.0953
 2617SOL    MW410242   4.712   3.129   4.563  0.1354 -0.0786 -0.1704
 2618SOL     OW10243   1.914   2.147   0.598 -0.0615 -0.3032 -0.0944
 2618SOL    HW210244   1.903   2.184   0.686 -0.5129  0.2055 -0.3631
 2618SOL    HW310245   2.009   2.142   0.586  0.1453  3.0621 -0.9794
 2618SOL    MW410246   1.925   2.151   0.608 -0.4844  0.1729 -0.0481
 2619SOL     OW10247   0.262   2.982   3.190 -0.0672 -0.2504 -0.1763
 2619SOL    HW210248   0.214   2.899   3.188 -0.0524 -0.3039  1.1127
 2619SOL    HW310249   0.227   3.028   3.266  0.5694  0.5431 -0.3539
 2619SOL    MW410250   0.251   2.977   3.200 -0.0500 -0.1584 -0.4194
 2620SOL     OW10251   0.391   4.343   6.222 -0.0246 -0.6924  0.4277
 2620SOL    HW210252   0.300   4.314   6.213 -0.5479  1.0840 -0.3838
 2620SOL    HW310253   0.387   4.438   6.211  1.7212 -0.3770  2.1102
 2620SOL    MW410254   0.378   4.352   6.219 -0.5694 -0.1641 -0.3567
 2621SOL     OW10255   2.710   5.737   3.847  0.7196  0.6231 -0.3171
 2621SOL    HW210256   2.678   5.811   3.898  0.0111  0.4692 -0.5321
 2621SOL    HW310257   2.656   5.663   3.874  1.0329  0.3103 -0.5308
 2621SOL    MW410258   2.699   5.737   3.857  0.4109  0.3319  0.3309
 2622SOL     OW10259   0.114   4.606   4.428 -0.1196 -0.0359  0.0781
 2622SOL    HW210260   0.170   4.659   4.371 -1.1099  1.2968  0.3109
 2622SOL    HW310261   0.063   4.552   4.368  0.5831 -0.4195 -0.1840
 2622SOL    MW410262   0.115   4.606   4.412 -0.1064  0.1364 -0.4428
 2623SOL     OW10263   4.526   6.167   1.997  0.3700 -0.2923  0.1640
 2623SOL    HW210264   4.553   6.241   1.943 -1.4510  1.3560  1.3640
 2623SOL    HW310265   4.456   6.124   1.947 -0.0066  0.0744  0.3738
 2623SOL    MW410266   4.520   6.171   1.983  0.2095  0.2467  0.4629
 2624SOL     OW10267   3.300   2.586   2.432  0.1624 -0.1927  0.0254
 2624SOL    HW210268   3.383   2.632   2.442  1.3662 -2.3507  0.4345
 2624SOL    HW310269   3.250   2.610   2.511  1.3750 -0.7640  0.9967
 2624SOL    MW410270   3.304   2.595   2.444  0.0452 -0.4814 -0.8111
 2625SOL     OW10271   1.507   4.407   4.352 -0.8176  0.2027  0.1038
 2625SOL    HW210272   1.533   4.358   4.431 -1.0027  2.0538  1.3706
 2625SOL    HW310273   1.540   4.354   4.280  1.5573 -0.3715  1.4827
 2625SOL    MW410274   1.515   4.393   4.353 -0.3903  0.3815  0.7481
 2626SOL     OW10275   1.457   2.372   5.079  0.4294  0.2825  1.0489
 2626SOL    HW210276   1.498   2.440   5.025 -0.2882 -0.0849  0.0049
 2626SOL    HW310277   1.390   2.418   5.128 -0.7177  0.2052 -0.3827
 2626SOL    MW410278   1.454   2.387   5.078 -0.2688  0.4287 -0.1132
 2627SOL     OW10279   3.012   6.256   5.961 -0.1928 -0.0540  0.0929
 2627SOL    HW210280   2.998   6.251   6.055  0.0846  0.5732  0.1670
 2627SOL    HW310281   2.933   6.297   5.927  0.2825  0.9813  0.2103
 2627SOL    MW410282   3.000   6.261   5.969  0.7108  0.2017 -0.3332
 2628SOL     OW10283   2.294   3.053   2.107  0.0331  0.0889 -0.1461
 2628SOL    HW210284   2.317   2.982   2.168  1.0642  0.8758  0.4251
 2628SOL    HW310285   2.263   3.124   2.164  0.2932  0.5696 -0.5963
 2628SOL    MW410286   2.293   3.053   2.123  0.2367  0.0177  0.3722
 2629SOL     OW10287  -0.003   2.657   3.481  0.2971 -0.1522 -0.4220
 2629SOL    HW210288  -0.081   2.602   3.470 -0.6339  1.1176 -0.4122
 2629SOL    HW310289   0.022   2.680   3.391  1.4987 -1.6280 -0.5101
 2629SOL    MW410290  -0.010   2.653   3.468 -0.2909  0.0410 -0.5708
 2630SOL     OW10291   4.123   3.330   2.662  0.2500  0.3591 -0.0702
 2630SOL    HW210292   4.207   3.341   2.707  0.7508  0.1136 -0.9308
 2630SOL    HW310293   4.073   3.272   2.720  1.1988 -0.6450 -0.2158
 2630SOL    MW410294   4.128   3.324   2.675  0.0056  0.4443 -0.0699
 2631SOL     OW10295   4.292   0.077   0.330  0.1121  0.5021 -0.3633
 2631SOL    HW210296   4.269   0.043   0.243 -0.3164  0.2410 -0.1529
 2631SOL    HW310297   4.208   0.087   0.375  0.3183  0.8239 -0.0475
 2631SOL    MW410298   4.278   0.074   0.324 -0.1986  0.0161  0.2297
 2632SOL     OW10299   6.086   0.382   4.733 -0.2828 -0.5823  0.4380
 2632SOL    HW210300   6.081   0.331   4.652  0.9160 -2.7845  1.6781
 2632SOL    HW310301   6.137   0.459   4.709 -1.5815 -0.2114 -1.3393
 2632SOL    MW410302   6.092   0.385   4.719 -0.6051  0.5846 -0.2081
 2633SOL     OW10303   1.319   2.059   5.294  0.0653  0.1489 -0.7918
 2633SOL    HW210304   1.249   2.063   5.359 -0.6429 -0.4339 -1.4988
 2633SOL    HW310305   1.274   2.059   5.210  0.7608 -2.2277 -1.2639
 2633SOL    MW410306   1.304   2.059   5.292 -0.5393 -0.4619  0.0462
 2634SOL     OW10307   1.494   4.970   5.895  0.1379 -0.5908  0.1620
 2634SOL    HW210308   1.411   4.975   5.943 -0.4513 -2.1199 -0.6472
 2634SOL    HW310309   1.532   5.057   5.905 -1.1056 -0.1432  1.3565
 2634SOL    MW410310   1.488   4.982   5.903  0.6645 -0.0297 -0.1941
 2635SOL     OW10311   2.144   2.661   4.553 -0.3940  0.3350 -0.3864
 2635SOL    HW210312   2.215   2.713   4.591  0.2721 -1.1422  0.4454
 2635SOL    HW310313   2.099   2.623   4.628 -0.6730 -0.5620 -0.9922
 2635SOL    MW410314   2.147   2.663   4.568  0.1195  0.5069 -0.2379
 2636SOL     OW10315   5.132   2.105   0.410 -0.0103  0.2223  0.2556
 2636SOL    HW210316   5.151   2.011   0.421  1.7923  0.7465  2.3893
 2636SOL    HW310317   5.185   2.131   0.334  0.2349 -0.3079  0.2372
 2636SOL    MW410318   5.142   2.096   0.402  0.0924  0.1799  0.0397
 2637SOL     OW10319   1.294   3.001   2.377  0.1485  0.1892 -0.3025
 2637SOL    HW210320   1.225   3.033   2.435 -0.1796 -0.1427 -0.5065
 2637SOL    HW310321   1.267   3.028   2.289  0.8011  0.9654 -0.2746
 2637SOL    MW410322   1.281   3.009   2.373  0.3559 -0.7599 -0.0734
 2638SOL     OW10323   1.428   0.040   5.857  0.0377 -0.1794 -0.1395
 2638SOL    HW210324   1.348   0.006   5.896 -0.0233 -0.1262 -0.2177
 2638SOL    HW310325   1.441   0.125   5.898 -1.0607  0.7427 -1.5895
 2638SOL    MW410326   1.419   0.047   5.867 -0.4492 -0.1290  0.2416
 2639SOL     OW10327   6.095   1.345   5.606  0.1815  0.0593  0.6931
 2639SOL    HW210328   6.165   1.386   5.556 -1.0244  0.4703 -0.7265
 2639SOL    HW310329   6.121   1.254   5.614  0.8184  0.1764  0.0876
 2639SOL    MW410330   6.108   1.339   5.601  0.7634 -0.4209 -0.0175
 2640SOL     OW10331   3.365   5.467   4.099  0.0702 -0.0901  0.1089
 2640SOL    HW210332   3.389   5.487   4.189 -1.2877  1.0882  0.2479
 2640SOL    HW310333   3.298   5.398   4.107  0.7113 -0.7508 -0.0771
 2640SOL    MW410334   3.359   5.460   4.112  0.1827  0.5154 -0.4655
 2641SOL     OW10335   4.068   4.931   5.354  0.4448 -0.1436  0.2449
 2641SOL    HW210336   4.082   4.944   5.260  1.2926 -0.7107  0.2815
 2641SOL    HW310337   4.034   5.014   5.385 -0.8858 -0.2862 -0.7598
 2641SOL    MW410338   4.066   4.943   5.346 -0.1911 -0.4370  0.0178
 2642SOL     OW10339   5.909   2.370   1.355 -0.1869 -0.1577  0.2749
 2642SOL    HW210340   5.864   2.391   1.437 -2.5051  0.3787 -1.0397
 2642SOL    HW310341   5.941   2.454   1.323 -0.1983 -0.2069  0.1319
 2642SOL    MW410342   5.907   2.384   1.361  0.1943  0.2848 -0.0736
 2643SOL     OW10343   1.870   0.878   0.846 -0.2425  0.6308 -0.1830
 2643SOL    HW210344   1.948   0.887   0.790  1.0973 -0.4765  1.3931
 2643SOL    HW310345   1.899   0.909   0.931 -1.2134 -0.7342  0.6808
 2643SOL    MW410346   1.884   0.883   0.850 -0.0951 -0.0673  0.4244
 2644SOL     OW10347   3.577   0.823   0.885  0.7069 -0.4476 -0.0834
 2644SOL    HW210348   3.535   0.859   0.807 -1.7890 -3.3844 -0.2991
 2644SOL    HW310349   3.588   0.898   0.943 -1.0601  1.2073 -1.7354
 2644SOL    MW410350   3.573   0.837   0.883 -0.2195 -0.6142 -0.1704
 2645SOL     OW10351   1.791   5.447   3.464  0.1435 -0.1542  0.0737
 2645SOL    HW210352   1.858   5.491   3.516 -0.1802 -0.8979  1.1402
 2645SOL    HW310353   1.808   5.476   3.374  3.1341 -1.7706 -0.0306
 2645SOL    MW410354   1.802   5.456   3.459  0.0209  0.2387  0.1915
 2646SOL     OW10355   5.508   1.269   2.482  0.5963 -0.0054 -0.3915
 2646SOL    HW210356   5.467   1.320   2.552  0.1061 -1.0533  0.1235
 2646SOL    HW310357   5.507   1.179   2.515 -0.6349 -0.7035 -2.1824
 2646SOL    MW410358   5.502   1.264   2.496 -0.1443 -0.0477 -0.1460
 2647SOL     OW10359   3.754   4.911   4.764  0.5174 -0.3560  0.2921
 2647SOL    HW210360   3.687   4.977   4.747 -1.0783 -1.1432  2.9991
 2647SOL    HW310361   3.794   4.895   4.678 -0.3541  2.6284 -0.8093
 2647SOL    MW410362   3.751   4.918   4.750 -0.3744  0.0924 -0.0013
 2648SOL     OW10363   2.970   6.147   1.661  0.2565  0.2961  0.0414
 2648SOL    HW210364   2.895   6.195   1.626 -1.0304 -0.3939  1.6951
 2648SOL    HW310365   3.030   6.216   1.692 -0.6987  0.8783  0.6602
 2648SOL    MW410366   2.968   6.163   1.661  0.2426 -0.3695 -0.0375
 2649SOL     OW10367   5.625   3.608   1.616 -0.0806  0.0470 -0.0222
 2649SOL    HW210368   5.661   3.567   1.694  0.8110  0.6288 -0.1126
 2649SOL    HW310369   5.543   3.648   1.646 -0.5339 -1.0488  0.2471
 2649SOL    MW410370   5.619   3.608   1.630  0.2909  0.1114  0.7944
 2650SOL     OW10371   5.848   3.036   1.211  0.1748  0.7578 -0.4165
 2650SOL    HW210372   5.798   3.011   1.288 -1.2970 -0.1491 -1.6186
 2650SOL    HW310373   5.799   3.109   1.173  0.9139  1.2283 -0.4885
 2650SOL    MW410374   5.835   3.042   1.216 -0.2804  0.0422  0.0574
 2651SOL     OW10375   0.904   2.810   2.785  0.2459 -0.1425  0.2363
 2651SOL    HW210376   0.991   2.784   2.756  0.9883  1.6669  0.7393
 2651SOL    HW310377   0.899   2.781   2.876  0.9748  1.1612  0.7174
 2651SOL    MW410378   0.915   2.803   2.793 -0.4635 -0.1471  0.4258
 2652SOL     OW10379   5.927   3.124   5.880  0.0649  0.1235  0.0308
 2652SOL    HW210380   5.935   3.041   5.832  0.3357  1.4232 -2.3304
 2652SOL    HW310381   5.832   3.138   5.887  0.0012 -0.7347  1.1570
 2652SOL    MW410382   5.915   3.115   5.875 -0.6667  0.5669  0.4193
 2653SOL     OW10383   1.104   1.719   6.233 -0.3066 -0.0398  0.3276
 2653SOL    HW210384   1.013   1.690   6.240  0.2238 -1.8776 -0.0893
 2653SOL    HW310385   1.132   1.730   6.324 -0.1804 -2.0391  0.5624
 2653SOL    MW410386   1.095   1.717   6.246  0.4185 -0.4130 -0.2212
 2654SOL     OW10387   5.867   5.500   4.097  0.1342  0.3580 -0.5740
 2654SOL    HW210388   5.944   5.545   4.133 -1.3393  1.3524  1.5746
 2654SOL    HW310389   5.808   5.571   4.071 -1.0987 -0.3163  0.2745
 2654SOL    MW410390   5.870   5.515   4.098  0.3072 -0.3152  0.0111
 2655SOL     OW10391   4.286   5.799   6.201 -0.1798 -0.0728  0.0498
 2655SOL    HW210392   4.335   5.867   6.249 -0.0102  0.2987 -0.6277
 2655SOL    HW310393   4.349   5.766   6.137 -0.3412 -0.7078  0.2116
 2655SOL    MW410394   4.301   5.804   6.199  0.2840  0.1760 -0.2675
 2656SOL     OW10395   4.535   1.228   0.486 -0.0015  0.0055  0.1856
 2656SOL    HW210396   4.455   1.278   0.498 -0.4386 -0.2819 -1.3324
 2656SOL    HW310397   4.509   1.137   0.499  0.0867 -0.0810 -0.2175
 2656SOL    MW410398   4.521   1.223   0.489  0.2048  0.6683 -0.0455
 2657SOL     OW10399   4.117   0.159   3.706  0.0436  0.3430 -0.0716
 2657SOL    HW210400   4.196   0.185   3.753 -0.0760 -0.4247  0.5739
 2657SOL    HW310401   4.066   0.110   3.770  0.2386 -1.4418 -1.2248
 2657SOL    MW410402   4.121   0.156   3.720  0.5529 -0.3133 -0.4870
 2658SOL     OW10403   3.069   6.050   1.043  0.1466 -0.4203 -0.3655
 2658SOL    HW210404   3.022   6.123   1.002  1.3090 -0.1646 -1.2909
 2658SOL    HW310405   3.035   5.972   1.000  2.0002 -0.0985 -2.5613
 2658SOL    MW410406   3.058   6.049   1.032 -0.3606 -0.2046 -0.0306
 2659SOL     OW10407   3.933   3.958   4.814 -0.1099  0.3221  0.1306
 2659SOL    HW210408   3.982   4.020   4.867 -2.3812  0.9187  1.6904
 2659SOL    HW310409   3.915   3.884   4.872  0.1884 -0.5652 -0.8627
 2659SOL    MW410410   3.937   3.956   4.829 -0.3399 -0.3971  0.0807
 2660SOL     OW10411   4.923   0.185   1.496  0.2184  0.0107  0.2992
 2660SOL    HW210412   4.853   0.134   1.456 -0.3868  0.3973  0.8360
 2660SOL    HW310413   4.980   0.211   1.423  0.2647 -1.0026 -0.0378
 2660SOL    MW410414   4.921   0.182   1.481  0.3652 -0.3629 -0.1526
 2661SOL     OW10415   3.396   1.485   2.450 -0.2068  0.2011  0.4815
 2661SOL    HW210416   3.372   1.395   2.431 -0.0928  0.0678  0.9460
 2661SOL    HW310417   3.313   1.527   2.475 -0.6476  0.7965 -1.7973
 2661SOL    MW410418   3.382   1.479   2.451  0.4624  0.2688 -0.2060
 2662SOL     OW10419   5.229   2.292   1.165 -0.3111 -0.0277 -0.0767
 2662SOL    HW210420   5.145   2.330   1.140 -0.1830 -0.2098 -0.8071
 2662SOL    HW310421   5.293   2.359   1.142 -0.1778 -0.2556 -0.3693
 2662SOL    MW410422   5.226   2.306   1.159  0.4036  0.3164 -0.1137
 2663SOL     OW10423   4.571   4.310   6.278  0.2469 -0.2420  0.0443
 2663SOL    HW210424   4.484   4.338   6.249 -0.0079 -0.7656  0.2938
 2663SOL    HW310425   4.554   4.254   6.354  0.8955  1.5125  1.5771
 2663SOL    MW410426   4.557   4.307   6.284  0.2859  0.1438 -0.0304
 2664SOL     OW10427   5.726   4.462   1.764 -0.5036 -0.0878  0.0184
 2664SOL    HW210428   5.775   4.543   1.777  1.5934 -1.2018 -0.4276
 2664SOL    HW310429   5.756   4.405   1.835 -0.1685 -1.2307 -1.0143
 2664SOL    MW410430   5.737   4.465   1.775  0.0944 -0.0237 -0.1066
 2665SOL     OW10431   0.872   4.887   5.320  0.1281  0.7714  0.2012
 2665SOL    HW210432   0.855   4.793   5.314 -0.4465  0.9558 -1.6581
 2665SOL    HW310433   0.955   4.893   5.369  0.2569 -0.6950  0.2070
 2665SOL    MW410434   0.881   4.875   5.326 -0.0816  0.3390  0.0284
 2666SOL     OW10435   0.047   2.262   0.417  0.0231 -0.3617 -0.5219
 2666SOL    HW210436   0.011   2.289   0.333  0.1641 -2.4909 -1.3228
 2666SOL    HW310437   0.008   2.323   0.480 -0.8740  0.6485 -1.9839
 2666SOL    MW410438   0.037   2.274   0.414  0.7114  0.4665  0.2673
 2667SOL     OW10439   4.575   1.221   1.835 -0.2185  0.0007  0.1932
 2667SOL    HW210440   4.626   1.302   1.838  2.0098 -1.3220 -0.0217
 2667SOL    HW310441   4.595   1.183   1.750 -0.7632 -1.0638  0.5229
 2667SOL    MW410442   4.584   1.226   1.824  0.3251  0.3143  0.0316
 2668SOL     OW10443   1.501   1.388   6.297  0.0147 -0.0390 -0.7265
 2668SOL    HW210444   1.509   1.481   6.274 -0.7748  0.2319  0.0235
 2668SOL    HW310445   1.423   1.384   6.353  1.3796 -0.7675  1.2307
 2668SOL    MW410446   1.492   1.400   6.302 -0.3121  0.3566 -0.5949
 2669SOL     OW10447   5.601   3.373   2.915  0.4152  0.3487 -0.0029
 2669SOL    HW210448   5.604   3.450   2.971  0.3163 -1.0622  2.0912
 2669SOL    HW310449   5.507   3.353   2.906  0.4065  0.8256 -1.0924
 2669SOL    MW410450   5.589   3.380   2.921  0.4866 -0.8507  0.0857
 2670SOL     OW10451   5.753   5.694   4.380  0.3953  0.7467 -0.8095
 2670SOL    HW210452   5.831   5.736   4.344  0.4497  0.1889 -1.3536
 2670SOL    HW310453   5.766   5.601   4.363 -0.3461  0.6408 -0.8188
 2670SOL    MW410454   5.765   5.687   4.373 -0.4511  0.0745 -0.1623
 2671SOL     OW10455   1.114   3.844   4.970 -0.1067 -0.0585  0.1080
 2671SOL    HW210456   1.091   3.937   4.966  0.9820  0.3169  1.6874
 2671SOL    HW310457   1.072   3.813   5.051  3.3429  0.2547  2.1920
 2671SOL    MW410458   1.105   3.852   4.980 -0.3054  0.2056 -0.1553
 2672SOL     OW10459   5.635   3.118   0.209  0.4775 -0.4467  1.5324
 2672SOL    HW210460   5.639   3.027   0.179 -1.0660 -0.3528  0.9041
 2672SOL    HW310461   5.567   3.158   0.154  0.8020  0.9642  2.1091
 2672SOL    MW410462   5.626   3.111   0.198  0.1234  0.1580 -0.3682
 2673SOL     OW10463   2.000   2.916   0.857  0.5635  0.4443 -0.0731
 2673SOL    HW210464   1.934   2.862   0.814  2.1094 -1.0051 -0.7768
 2673SOL    HW310465   1.968   3.006   0.848 -0.5469 -0.0782 -1.7713
 2673SOL    MW410466   1.987   2.921   0.850  0.3006 -0.2386 -0.2141
 2674SOL     OW10467   1.179   6.381   4.292 -0.2400 -0.0653  0.4299
 2674SOL    HW210468   1.122   6.387   4.215 -1.6078  0.6957  1.4467
 2674SOL    HW310469   1.228   6.463   4.292 -1.6511  0.8243  1.3805
 2674SOL    MW410470   1.178   6.392   4.282 -0.3359  0.0236 -0.4897
 2675SOL     OW10471   1.887   6.379   5.974 -0.0646  0.2053 -0.8128
 2675SOL    HW210472   1.855   6.295   6.005 -0.1686  0.3980 -0.3916
 2675SOL    HW310473   1.974   6.360   5.938  0.4463  0.1301  0.4221
 2675SOL    MW410474   1.894   6.366   5.973  0.3276  0.3303 -0.1982
 2676SOL     OW10475   1.380   3.020   5.894 -0.0099  0.5990 -0.1797
 2676SOL    HW210476   1.343   2.937   5.864  0.0766  0.3700  0.3272
 2676SOL    HW310477   1.336   3.087   5.841  0.3162  0.1964 -0.9696
 2676SOL    MW410478   1.369   3.018   5.883 -0.2726 -0.2789  0.2053
 2677SOL     OW10479   3.821   3.841   0.625  0.5106 -0.5880 -0.1797
 2677SOL    HW210480   3.883   3.820   0.556  0.6477  0.4268 -0.3804
 2677SOL    HW310481   3.743   3.789   0.605 -0.2518  1.2195 -2.3217
 2677SOL    MW410482   3.819   3.832   0.613 -0.3089 -0.1241 -0.1772
 2678SOL     OW10483   3.649   5.695   1.760  0.3836  0.4598  0.2381
 2678SOL    HW210484   3.653   5.623   1.696 -0.9423 -1.9457  2.6798
 2678SOL    HW310485   3.562   5.732   1.748  0.8573  1.3409 -0.6264
 2678SOL    MW410486   3.638   5.690   1.750  0.4677 -0.3388 -0.2779
 2679SOL     OW10487   5.944   5.070   2.295 -0.6014  0.3609 -0.2608
 2679SOL    HW210488   5.999   5.072   2.216 -1.3303  1.4710 -0.7632
 2679SOL    HW310489   5.889   4.993   2.284 -0.8646  0.6387 -0.9685
 2679SOL    MW410490   5.944   5.060   2.283  0.0087 -0.7734 -0.2587
 2680SOL     OW10491   1.895   0.908   5.991 -0.1900  1.5903 -0.1797
 2680SOL    HW210492   1.938   0.831   6.027  0.9388  2.7612  1.0982
 2680SOL    HW310493   1.958   0.979   6.002 -1.7720  3.0307  0.1256
 2680SOL    MW410494   1.909   0.908   5.997  0.1680 -0.4319  0.2960
 2681SOL     OW10495   2.451   3.259   5.426  0.2114 -0.2347  0.2551
 2681SOL    HW210496   2.475   3.197   5.358 -1.0357 -0.1475 -0.2935
 2681SOL    HW310497   2.406   3.329   5.379  1.3165  0.9510  0.9027
 2681SOL    MW410498   2.448   3.260   5.411  0.0054  0.7379  0.8146
 2682SOL     OW10499   5.979   1.015   5.452  0.2596 -0.1124  0.1553
 2682SOL    HW210500   5.927   0.946   5.411 -0.5986  0.0715  0.8825
 2682SOL    HW310501   5.964   1.092   5.397  0.5725 -0.3060 -0.2027
 2682SOL    MW410502   5.970   1.016   5.440  0.1496  0.4136 -0.2678
 2683SOL     OW10503   0.923   0.080   1.369  0.3662 -0.6431  0.1803
 2683SOL    HW210504   0.971   0.161   1.385 -1.2409  1.0960 -2.7918
 2683SOL    HW310505   0.832   0.102   1.387 -0.0450 -1.9673 -0.1549
 2683SOL    MW410506   0.918   0.093   1.373  0.6074 -0.0350  0.5385
 2684SOL     OW10507   6.307   1.145   3.852  0.4248  0.2722  0.2303
 2684SOL    HW210508   6.246   1.168   3.781  1.2056  1.3614 -0.1144
 2684SOL    HW310509   6.262   1.077   3.901 -0.5169  0.1318 -0.7917
 2684SOL    MW410510   6.293   1.139   3.849  0.4937 -0.0750 -0.2520
 2685SOL     OW10511   5.349   5.124   6.153  0.3370 -0.2951  0.3711
 2685SOL    HW210512   5.394   5.041   6.167  0.4588 -0.6452 -1.7416
 2685SOL    HW310513   5.417   5.184   6.123  0.2423  0.5988  1.8322
 2685SOL    MW410514   5.364   5.121   6.151 -0.1256 -0.3609  0.2082
 2686SOL     OW10515   5.938   2.474   2.662  0.0887 -1.3124  0.4162
 2686SOL    HW210516   5.866   2.484   2.725 -0.0203  0.2298  0.0939
 2686SOL    HW310517   5.896   2.469   2.577  0.3480 -0.4766  0.2313
 2686SOL    MW410518   5.923   2.475   2.659 -0.5110  0.2612 -0.2142
 2687SOL     OW10519   4.679   0.138   6.307  0.2808  0.3859 -0.4318
 2687SOL    HW210520   4.708   0.224   6.336  0.6317 -0.0192  0.4797
 2687SOL    HW310521   4.604   0.118   6.363 -1.5276  1.2155 -2.4392
 2687SOL    MW410522   4.673   0.146   6.318 -0.4664 -0.0908 -0.2314
 2688SOL     OW10523   1.385   3.883   1.340  0.3766 -0.0282  0.2224
 2688SOL    HW210524   1.342   3.805   1.376  1.7308 -1.3470 -0.8598
 2688SOL    HW310525   1.342   3.897   1.256  2.3293 -1.7785 -1.1974
 2688SOL    MW410526   1.374   3.874   1.334 -0.2603  0.6310  0.1047
 2689SOL     OW10527   0.529   0.197   1.152  0.1834  0.0914  0.0337
 2689SOL    HW210528   0.615   0.215   1.114  0.4586  0.9620  1.0304
 2689SOL    HW310529   0.493   0.283   1.174 -0.8199 -0.2765 -0.0971
 2689SOL    MW410530   0.535   0.210   1.150 -0.1631  0.7217  0.2338
 2690SOL     OW10531   1.448   6.033   1.866  0.9151  0.3557 -0.1872
 2690SOL    HW210532   1.527   6.029   1.812 -0.2044 -2.2679 -1.8290
 2690SOL    HW310533   1.428   5.941   1.886 -0.4885  1.0800  2.1189
 2690SOL    MW410534   1.456   6.020   1.861  0.3420  0.0263  0.3738
 2691SOL     OW10535   1.393   6.013   5.897 -0.6882  0.3946  0.5422
 2691SOL    HW210536   1.443   5.931   5.893 -0.4951  0.5442 -0.3727
 2691SOL    HW310537   1.460   6.082   5.896 -0.8440  0.5625  1.4696
 2691SOL    MW410538   1.408   6.011   5.896 -0.1430  0.4517 -0.0790
 2692SOL     OW10539   1.150   3.528   1.288  0.3395  0.2626 -0.2397
 2692SOL    HW210540   1.173   3.592   1.355  1.2235 -1.2040  0.9404
 2692SOL    HW310541   1.231   3.512   1.241 -0.1686  0.9191 -1.3692
 2692SOL    MW410542   1.163   3.534   1.291  0.0103 -0.3480 -0.3900
 2693SOL     OW10543   0.834   5.774   1.029 -0.8127 -0.0982  0.0204
 2693SOL    HW210544   0.804   5.830   1.101 -1.0738 -0.7541  0.4333
 2693SOL    HW310545   0.833   5.686   1.066 -1.4355 -0.5128 -0.9451
 2693SOL    MW410546   0.830   5.770   1.044 -0.4676  0.1974  0.2007
 2694SOL     OW10547   1.943   3.767   0.080 -0.1471  0.3176 -0.3724
 2694SOL    HW210548   1.965   3.742   0.169  1.2677  0.7194 -0.5909
 2694SOL    HW310549   1.923   3.684   0.036 -2.4399  0.2311  0.6778
 2694SOL    MW410550   1.943   3.752   0.086 -0.3334  0.1353 -0.2320
 2695SOL     OW10551   1.531   4.660   2.336  0.1925  0.4294  0.9675
 2695SOL    HW210552   1.606   4.714   2.362  1.5328 -0.7788 -0.2711
 2695SOL    HW310553   1.471   4.722   2.293  1.6014  1.0082 -0.2482
 2695SOL    MW410554   1.533   4.675   2.334  0.4096  0.1065 -0.1873
 2696SOL     OW10555   1.588   5.394   2.745 -0.1068  0.0811  0.0230
 2696SOL    HW210556   1.608   5.306   2.713  1.8365  0.4532  0.0667
 2696SOL    HW310557   1.494   5.404   2.730 -0.0566 -1.3439 -1.5861
 2696SOL    MW410558   1.578   5.383   2.739  0.6566 -0.0953  0.5063
 2697SOL     OW10559   5.425   5.567   2.772  0.2818 -0.2655 -0.0649
 2697SOL    HW210560   5.377   5.567   2.855  0.9007  1.9613  0.3634
 2697SOL    HW310561   5.492   5.635   2.784  0.4107  0.0815 -2.3818
 2697SOL    MW410562   5.428   5.576   2.785  0.3284 -0.4912 -0.2546
 2698SOL     OW10563   2.820   5.641   6.386 -0.9847  0.3168  0.2253
 2698SOL    HW210564   2.899   5.674   6.341 -0.7601 -1.4721 -0.7779
 2698SOL    HW310565   2.835   5.661   6.478 -0.3666  1.9575 -0.1909
 2698SOL    MW410566   2.833   5.648   6.392  0.9442 -0.1302 -0.1123
 2699SOL     OW10567   2.440   4.445   0.333  0.1353 -0.4003 -1.1160
 2699SOL    HW210568   2.452   4.466   0.240  0.5218  1.2583 -0.7269
 2699SOL    HW310569   2.528   4.450   0.370 -0.2586  0.9639 -0.2988
 2699SOL    MW410570   2.453   4.449   0.325  0.0978 -0.1592 -0.2247
 2700SOL     OW10571   3.682   2.826   1.358  0.0605 -0.2031  0.2607
 2700SOL    HW210572   3.777   2.814   1.351  0.3273  1.2647  1.0454
 2700SOL    HW310573   3.648   2.789   1.276  1.6982  2.8584 -2.0296
 2700SOL    MW410574   3.690   2.820   1.346  1.1189  0.2121  0.0672
 2701SOL     OW10575   2.045   1.915   0.848  0.3754 -0.2765  0.3999
 2701SOL    HW210576   1.975   1.969   0.811  1.6262  1.4800  0.4588
 2701SOL    HW310577   2.106   1.902   0.775 -1.0168 -3.7499 -0.3020
 2701SOL    MW410578   2.044   1.921   0.833  0.3924  0.1856 -0.1263
 2702SOL     OW10579   2.044   5.792   2.841 -0.6975 -0.1262  0.5084
 2702SOL    HW210580   2.097   5.832   2.909 -1.2652 -1.0568  1.5397
 2702SOL    HW310581   1.954   5.815   2.864 -1.0814 -2.2094  1.3620
 2702SOL    MW410582   2.039   5.800   2.853 -0.1201  0.0322  0.0546
 2703SOL     OW10583   0.461   3.802   4.980  0.4474 -0.0868 -0.3903
 2703SOL    HW210584   0.378   3.762   5.006  0.7547 -0.3696  0.1743
 2703SOL    HW310585   0.477   3.869   5.048 -0.0477  0.9882 -1.2994
 2703SOL    MW410586   0.452   3.806   4.993  0.2089 -0.5993 -0.1183
 2704SOL     OW10587   3.802   3.569   5.540  0.2827 -0.2987 -0.1060
 2704SOL    HW210588   3.743   3.501   5.509 -0.8260  0.9673 -0.9097
 2704SOL    HW310589   3.807   3.632   5.468 -1.0270  1.8972  1.5651
 2704SOL    MW410590   3.795   3.569   5.527 -0.1280 -0.1755  0.0368
 2705SOL     OW10591   2.426   0.712   4.196 -0.2009 -0.0905  0.0115
 2705SOL    HW210592   2.434   0.621   4.169 -3.1182 -0.3225 -0.4425
 2705SOL    HW310593   2.511   0.751   4.177  1.0227 -2.6023 -0.0909
 2705SOL    MW410594   2.438   0.705   4.190 -0.2855 -0.0492 -0.0191
 2706SOL     OW10595   1.672   4.192   4.186 -0.0328  0.4319  0.1289
 2706SOL    HW210596   1.651   4.202   4.093 -0.0774  1.2741  0.2162
 2706SOL    HW310597   1.639   4.105   4.209  2.0735 -0.8077 -1.1895
 2706SOL    MW410598   1.665   4.182   4.177  0.5674 -0.4895 -0.1937
 2707SOL     OW10599   5.948   0.126   2.363 -0.2620  0.3152 -0.0622
 2707SOL    HW210600   5.873   0.129   2.423  0.5298 -0.4045  1.0188
 2707SOL    HW310601   5.995   0.209   2.379  0.4444 -0.2702  1.0247
 2707SOL    MW410602   5.944   0.138   2.373 -0.2448  0.2762 -0.1730
 2708SOL     OW10603   5.001   5.743   5.920  0.5331 -0.3606  0.4908
 2708SOL    HW210604   4.988   5.667   5.863  0.1081 -1.2102  1.6686
 2708SOL    HW310605   5.018   5.815   5.860  1.6476 -1.5086 -0.6489
 2708SOL    MW410606   5.001   5.742   5.905  0.3016 -0.5773  0.0465
 2709SOL     OW10607   5.787   2.494   5.124  0.7963  0.2567  0.0970
 2709SOL    HW210608   5.717   2.539   5.077 -1.5187 -0.7019  2.3498
 2709SOL    HW310609   5.809   2.553   5.196  1.5126  0.0717  0.0303
 2709SOL    MW410610   5.780   2.508   5.127  0.0145 -0.0319  0.5033
 2710SOL     OW10611   2.836   3.992   5.271  0.9714  0.1052 -0.1763
 2710SOL    HW210612   2.891   4.063   5.236  0.7043  0.8964  0.9402
 2710SOL    HW310613   2.761   4.038   5.310  1.1901 -0.7230  1.2853
 2710SOL    MW410614   2.833   4.008   5.272  0.4985  0.2008 -0.2634
 2711SOL     OW10615   5.937   1.088   1.243  0.4311  0.0051  0.2371
 2711SOL    HW210616   5.984   1.057   1.165  0.7568  3.8716 -1.3157
 2711SOL    HW310617   5.865   1.141   1.208 -2.2690 -1.7204  2.6448
 2711SOL    MW410618   5.933   1.091   1.228 -0.2549  0.1808 -0.0540
 2712SOL     OW10619   6.265   6.095   5.205  0.2560 -0.5843  0.6125
 2712SOL    HW210620   6.222   6.181   5.206 -0.8343 -1.0582 -1.0772
 2712SOL    HW310621   6.355   6.113   5.232 -0.3551  0.8256  1.8746
 2712SOL    MW410622   6.271   6.109   5.208 -0.2504  0.0206 -0.2731
 2713SOL     OW10623   4.381   1.644   4.809 -0.6137  0.1208  0.4910
 2713SOL    HW210624   4.444   1.598   4.754 -0.6075  0.2641  0.3777
 2713SOL    HW310625   4.307   1.584   4.818 -0.2209 -0.2872  1.0987
 2713SOL    MW410626   4.380   1.630   4.803  0.1343  0.1816  0.3483
 2714SOL     OW10627   6.099   3.369   5.982  0.0737 -0.3867  0.7522
 2714SOL    HW210628   6.062   3.431   5.919 -1.2150 -0.4531  1.4146
 2714SOL    HW310629   6.033   3.300   5.989  1.1933 -1.5163  0.5297
 2714SOL    MW410630   6.085   3.368   5.974 -0.3734  0.2909  0.0401
 2715SOL     OW10631   1.018   5.851   1.917 -0.3176 -0.2504 -0.7325
 2715SOL    HW210632   1.049   5.846   1.826 -0.0428 -1.0169 -0.6037
 2715SOL    HW310633   0.950   5.783   1.922 -0.9421  0.3731 -0.5908
 2715SOL    MW410634   1.013   5.841   1.905 -0.1877 -0.0828 -0.1264
 2716SOL     OW10635   1.880   1.472   5.318  0.0034  0.2823 -0.2407
 2716SOL    HW210636   1.920   1.532   5.256  1.5929 -2.3175 -1.9213
 2716SOL    HW310637   1.858   1.394   5.267 -0.0018 -1.4206  2.1487
 2716SOL    MW410638   1.882   1.469   5.303  0.3394 -0.2413  0.2326
 2717SOL     OW10639   5.494   3.732   0.143  0.2996  0.4515 -0.4869
 2717SOL    HW210640   5.483   3.821   0.177 -1.8471  0.6006 -1.3613
 2717SOL    HW310641   5.449   3.676   0.207 -2.4472  0.5771 -2.1298
 2717SOL    MW410642   5.486   3.736   0.156 -0.5821 -0.1034  0.5917
 2718SOL     OW10643   0.303   6.172   5.080  0.4800  0.1855  0.7254
 2718SOL    HW210644   0.230   6.174   5.142 -0.9896  0.1095 -0.8914
 2718SOL    HW310645   0.351   6.253   5.097 -1.8743  1.9217 -0.1853
 2718SOL    MW410646   0.300   6.183   5.090  0.1964  0.2484  0.2522
 2719SOL     OW10647   5.986   6.206   0.623 -0.4054 -0.1249  0.4625
 2719SOL    HW210648   5.920   6.202   0.692 -0.7571 -1.8964  0.0833
 2719SOL    HW310649   5.943   6.169   0.547 -0.1517  2.1616 -0.8819
 2719SOL    MW410650   5.972   6.200   0.622  0.1255 -0.0176 -0.1060
 2720SOL     OW10651   0.172   2.532   1.790 -0.1057 -0.1803 -0.0232
 2720SOL    HW210652   0.249   2.587   1.808  0.8286 -1.5223  0.2012
 2720SOL    HW310653   0.198   2.479   1.715 -1.6212  0.8298 -1.3266
 2720SOL    MW410654   0.186   2.532   1.783  0.0822  0.1006 -0.3508
 2721SOL     OW10655   4.201   4.672   5.367  0.0778  0.0833 -0.5703
 2721SOL    HW210656   4.164   4.756   5.393  1.5119  1.4577 -2.6209
 2721SOL    HW310657   4.278   4.662   5.423 -0.8440 -0.6154  0.6360
 2721SOL    MW410658   4.206   4.682   5.378  0.4126  0.0630  0.1446
 2722SOL     OW10659   4.793   5.032   3.627  0.1505  0.1218  0.5488
 2722SOL    HW210660   4.719   5.049   3.569 -0.7849 -1.0929  1.3330
 2722SOL    HW310661   4.868   5.021   3.568 -0.4968  0.2857 -0.3208
 2722SOL    MW410662   4.793   5.033   3.611  0.3321 -0.2746  0.2844
 2723SOL     OW10663   5.409   0.743   4.639  0.1877 -0.4281 -0.1779
 2723SOL    HW210664   5.421   0.762   4.732 -0.4268 -2.2035  0.3081
 2723SOL    HW310665   5.324   0.781   4.617 -0.6429 -1.7667  0.5562
 2723SOL    MW410666   5.400   0.751   4.648 -0.8275 -0.2323 -0.3285
 2724SOL     OW10667   4.561   1.562   1.699  0.1558 -0.4172 -0.0195
 2724SOL    HW210668   4.489   1.567   1.761  1.3994  2.2911  1.3996
 2724SOL    HW310669   4.520   1.544   1.614 -2.1542  0.8064  0.7753
 2724SOL    MW410670   4.546   1.561   1.696 -0.4555  0.2510 -0.5275
 2725SOL     OW10671   2.360   1.876   6.010 -0.6749 -0.0837  0.6538
 2725SOL    HW210672   2.438   1.883   5.955 -0.0100  1.1014  1.6804
 2725SOL    HW310673   2.349   1.782   6.025 -0.0294 -0.3227 -0.3134
 2725SOL    MW410674   2.369   1.865   6.005  0.2156 -0.0610  0.5854
 2726SOL     OW10675   1.265   1.472   5.708  0.7049 -0.6099  0.4513
 2726SOL    HW210676   1.351   1.514   5.709 -0.2544  1.4698  1.1417
 2726SOL    HW310677   1.232   1.483   5.798 -1.1418  0.5693 -0.3265
 2726SOL    MW410678   1.272   1.479   5.720 -0.4965 -0.2402 -0.3002
 2727SOL     OW10679   3.152   3.891   2.187 -0.1333  0.0548 -0.1587
 2727SOL    HW210680   3.102   3.812   2.165  0.7163 -0.1194 -1.5534
 2727SOL    HW310681   3.089   3.962   2.176 -0.4077 -0.2653 -0.6788
 2727SOL    MW410682   3.137   3.890   2.183  0.2336  0.2833  0.0820
 2728SOL     OW10683   0.437   2.903   5.709 -0.3452 -0.0270  0.1888
 2728SOL    HW210684   0.395   2.818   5.719  1.5124 -0.7847  2.7899
 2728SOL    HW310685   0.525   2.891   5.746  0.5940  2.5945 -0.9239
 2728SOL    MW410686   0.443   2.890   5.715  0.6527 -0.2472 -0.4458
 2729SOL     OW10687   4.407   4.848   0.725 -0.0966  0.4503  0.4352
 2729SOL    HW210688   4.339   4.793   0.763 -0.1739 -0.2680 -0.7035
 2729SOL    HW310689   4.488   4.801   0.741 -0.2018 -0.2022 -0.8651
 2729SOL    MW410690   4.408   4.835   0.732  0.1526 -0.1192  0.4521
 2730SOL     OW10691   1.713   1.100   2.959 -0.3036  0.1700 -0.4019
 2730SOL    HW210692   1.661   1.054   2.894  0.3774 -0.6826 -0.3612
 2730SOL    HW310693   1.803   1.092   2.927  0.0221 -0.1483  0.5771
 2730SOL    MW410694   1.718   1.093   2.946 -0.8200  0.0035 -0.2803
 2731SOL     OW10695   1.589   1.255   1.959  0.2860  0.0182  0.1260
 2731SOL    HW210696   1.637   1.318   1.905 -0.6272  1.1948  0.6206
 2731SOL    HW310697   1.560   1.188   1.898 -1.5923  1.8272 -1.1359
 2731SOL    MW410698   1.591   1.255   1.944 -0.0712  0.0088  0.5264
 2732SOL     OW10699   5.596   3.159   2.144 -0.0617 -0.3056  0.3912
 2732SOL    HW210700   5.537   3.142   2.070 -0.5503 -2.5319  1.2110
 2732SOL    HW310701   5.682   3.130   2.113  0.3239  1.3280 -0.1966
 2732SOL    MW410702   5.599   3.153   2.130 -0.5437 -0.1957  0.4099
 2733SOL     OW10703   1.042   2.213   5.736 -0.0581  0.5247 -0.7154
 2733SOL    HW210704   1.079   2.153   5.801 -0.9715  1.2763  0.5393
 2733SOL    HW310705   0.947   2.205   5.749 -0.2256  1.1997 -1.4902
 2733SOL    MW410706   1.034   2.204   5.746  0.0937 -0.2174  0.2813
 2734SOL     OW10707   0.955   4.636   4.594  0.3106  0.5598  0.5728
 2734SOL    HW210708   0.882   4.596   4.547  1.9552  0.4047 -2.0867
 2734SOL    HW310709   0.937   4.730   4.590 -0.1095  0.4825  0.5849
 2734SOL    MW410710   0.943   4.643   4.587 -0.2576 -0.1768 -0.2314
 2735SOL     OW10711   1.057   0.236   0.698  0.3092  0.0716  0.0897
 2735SOL    HW210712   0.971   0.250   0.659  0.7729 -1.8742 -1.7833
 2735SOL    HW310713   1.106   0.316   0.677 -0.0630 -0.1337 -1.6516
 2735SOL    MW410714   1.052   0.249   0.690  0.2682 -0.3805  0.0410
 2736SOL     OW10715   2.584   0.636   2.879 -0.4996  0.2250  0.7149
 2736SOL    HW210716   2.490   0.654   2.880 -0.3408  1.0637  1.3069
 2736SOL    HW310717   2.623   0.711   2.834  0.0024  0.4886  1.5717
 2736SOL    MW410718   2.577   0.648   2.873  0.1860  0.8152 -0.6201
 2737SOL     OW10719   2.261   2.367   0.492  0.1328 -0.9193 -0.4893
 2737SOL    HW210720   2.348   2.356   0.453  1.1211 -1.7856  1.7675
 2737SOL    HW310721   2.203   2.385   0.418  2.2667 -0.0406 -2.0478
 2737SOL    MW410722   2.265   2.368   0.477  0.0597 -0.0912  0.1021
 2738SOL     OW10723   3.647   0.042   2.188 -0.2177 -0.5908  0.4006
 2738SOL    HW210724   3.715   0.004   2.133  0.6836  1.1299  0.2713
 2738SOL    HW310725   3.645  -0.014   2.266 -0.5610 -2.2361 -0.7277
 2738SOL    MW410726   3.656   0.029   2.191 -0.4507  0.1029  0.8304
 2739SOL     OW10727   1.870   5.019   2.399 -0.4385  0.0775  0.4626
 2739SOL    HW210728   1.900   5.031   2.309  1.9463 -0.8815  1.0555
 2739SOL    HW310729   1.896   5.099   2.444  0.1765 -0.2496  0.7058
 2739SOL    MW410730   1.877   5.031   2.393  0.2530  0.1756 -0.1402
 2740SOL     OW10731   0.795   0.706   1.704  0.0683 -0.3428 -0.1749
 2740SOL    HW210732   0.817   0.780   1.648  2.1996  0.2206  1.2780
 2740SOL    HW310733   0.700   0.709   1.712  0.0289  1.6934 -0.9096
 2740SOL    MW410734   0.785   0.716   1.698 -0.5373 -0.0994  0.1122
 2741SOL     OW10735   0.635   1.692   5.159  0.5714 -0.2457 -0.0574
 2741SOL    HW210736   0.593   1.741   5.089 -0.4322 -2.7204 -1.3145
 2741SOL    HW310737   0.568   1.685   5.227  0.9960  0.7764  0.4837
 2741SOL    MW410738   0.621   1.698   5.158 -0.4946 -1.1491 -0.4935
 2742SOL     OW10739   3.447   2.629   0.474 -0.5942  0.5216 -0.0684
 2742SOL    HW210740   3.370   2.653   0.424 -1.1118 -0.8781 -0.0054
 2742SOL    HW310741   3.416   2.626   0.565 -0.7218 -0.8394 -0.1250
 2742SOL    MW410742   3.433   2.632   0.480 -0.3009 -0.2967  0.2919
 2743SOL     OW10743   0.249   3.667   5.079 -0.3785 -0.0143 -0.3672
 2743SOL    HW210744   0.222   3.623   4.999 -0.4985  0.9932 -0.9015
 2743SOL    HW310745   0.174   3.723   5.101 -1.5745 -2.3519  2.0753
 2743SOL    MW410746   0.235   3.669   5.071  0.0485  0.4894  0.0505
 2744SOL     OW10747   3.883   4.252   4.085  0.1147 -0.4359  0.4193
 2744SOL    HW210748   3.806   4.307   4.069  0.3689 -0.1966 -0.0046
 2744SOL    HW310749   3.916   4.281   4.170 -0.4449 -0.7552  0.7460
 2744SOL    MW410750   3.878   4.263   4.094  0.0426  0.2844 -0.4952
 2745SOL     OW10751   1.871   5.929   0.802  0.2177 -0.1237 -0.3780
 2745SOL    HW210752   1.895   6.022   0.803  0.1011 -0.0960  0.6592
 2745SOL    HW310753   1.877   5.904   0.710  0.8176  0.7665 -0.5924
 2745SOL    MW410754   1.875   5.938   0.790 -0.3193 -0.3051  0.1183
 2746SOL     OW10755   2.280   4.352   4.267  0.0394  0.3393  0.1742
 2746SOL    HW210756   2.230   4.317   4.193 -0.4963  1.6855 -0.1385
 2746SOL    HW310757   2.247   4.442   4.277 -0.5891 -0.1017  2.6604
 2746SOL    MW410758   2.269   4.359   4.259 -0.1602 -0.2402  0.0188
 2747SOL     OW10759   0.093   0.982   0.510 -0.1245 -0.6520  0.3318
 2747SOL    HW210760   0.043   1.029   0.443  1.8096 -0.6210 -1.1567
 2747SOL    HW310761   0.157   1.045   0.542 -0.5142 -0.9064  1.7053
 2747SOL    MW410762   0.095   0.996   0.506  0.2107 -0.3602 -0.0126
 2748SOL     OW10763   6.307   2.470   3.285 -0.0772  0.0351 -0.1958
 2748SOL    HW210764   6.216   2.440   3.280 -0.3806  0.9237 -0.1789
 2748SOL    HW310765   6.323   2.512   3.201  0.7313 -1.2037 -0.6904
 2748SOL    MW410766   6.297   2.472   3.274  0.4026 -0.0481 -0.5875
 2749SOL     OW10767   3.700   5.624   1.234 -0.0927  0.2799  0.3107
 2749SOL    HW210768   3.768   5.691   1.242  0.5306 -0.3387  0.3148
 2749SOL    HW310769   3.680   5.600   1.325  0.7680 -0.5931  0.2892
 2749SOL    MW410770   3.706   5.629   1.247  0.1405 -0.2079 -0.1269
 2750SOL     OW10771   5.488   2.558   3.820 -1.1390 -0.7138  0.0803
 2750SOL    HW210772   5.576   2.522   3.827 -0.8417 -0.0549 -0.2234
 2750SOL    HW310773   5.490   2.637   3.874 -1.3064 -0.2711 -0.5433
 2750SOL    MW410774   5.500   2.564   3.828  0.6298  0.5366  0.6251
 2751SOL     OW10775   5.269   4.802   1.002  0.1546  0.4192  0.4051
 2751SOL    HW210776   5.317   4.744   1.061  0.1672 -0.6706 -0.6322
 2751SOL    HW310777   5.313   4.793   0.918  1.0158  3.0288  0.4911
 2751SOL    MW410778   5.281   4.793   0.999 -0.1237 -0.6612  0.0076
 2752SOL     OW10779   2.145   0.643   4.304  0.6577  0.3213  0.0910
 2752SOL    HW210780   2.080   0.699   4.348  2.5686  2.8546 -0.1159
 2752SOL    HW310781   2.093   0.573   4.266 -1.5188 -0.0285  3.2615
 2752SOL    MW410782   2.129   0.641   4.305  0.0951 -0.2205  0.3822
 2753SOL     OW10783   6.025   3.416   4.854 -0.4679  0.5288  0.0161
 2753SOL    HW210784   6.040   3.420   4.949 -0.8709  1.6238  0.0425
 2753SOL    HW310785   5.982   3.332   4.840  0.6833 -0.1993  0.6393
 2753SOL    MW410786   6.021   3.406   4.865 -0.1414  0.3384  0.3058
 2754SOL     OW10787   2.107   6.035   1.251 -0.2106  0.3101  0.5915
 2754SOL    HW210788   2.122   5.940   1.254  0.2151  0.3909  1.8894
 2754SOL    HW310789   2.193   6.073   1.272 -0.4824  0.9752  0.5216
 2754SOL    MW410790   2.121   6.027   1.254 -0.3887 -0.5203  0.1284
 2755SOL     OW10791   1.811   4.064   4.830  0.2960 -0.8172 -0.2400
 2755SOL    HW210792   1.893   4.092   4.788 -0.1980 -0.8194 -1.2436
 2755SOL    HW310793   1.761   4.144   4.843 -0.4598 -1.0119 -1.6843
 2755SOL    MW410794   1.815   4.078   4.826 -0.7832 -0.8950  0.0887
 2756SOL     OW10795   1.145   4.125   0.118 -0.3467 -0.2147  0.0694
 2756SOL    HW210796   1.079   4.057   0.121 -1.6296  0.9964  1.7631
 2756SOL    HW310797   1.115   4.185   0.049 -0.0574 -0.5537 -0.3550
 2756SOL    MW410798   1.132   4.124   0.110  0.4317  0.1430  0.8411
 2757SOL     OW10799   1.260   2.596   4.956  0.5464 -0.8373 -0.1529
 2757SOL    HW210800   1.205   2.518   4.949 -0.2921 -0.1528 -1.5520
 2757SOL    HW310801   1.350   2.563   4.949  0.2764 -1.7941  0.5962
 2757SOL    MW410802   1.265   2.582   4.954  0.1597  0.3383  0.3927
 2758SOL     OW10803   3.370   6.033   6.067  0.0758  0.1434  0.0761
 2758SOL    HW210804   3.333   6.046   6.154 -0.1321 -0.3976  0.0697
 2758SOL    HW310805   3.401   6.120   6.041 -0.6399  0.4797  0.3287
 2758SOL    MW410806   3.369   6.046   6.075 -0.5951  0.1167  0.7053
 2759SOL     OW10807   2.456   1.255   4.493 -0.3750 -0.2293  0.1185
 2759SOL    HW210808   2.480   1.179   4.440 -0.6134 -0.5515  0.4708
 2759SOL    HW310809   2.534   1.310   4.492  0.8534 -1.7831  2.1996
 2759SOL    MW410810   2.470   1.252   4.486  0.1294 -0.2647  0.0840
 2760SOL     OW10811   0.985   3.421   1.957 -0.2171 -0.3687  0.2656
 2760SOL    HW210812   0.962   3.370   2.035 -0.2938 -1.1012 -0.2231
 2760SOL    HW310813   1.078   3.403   1.944  0.1105  0.7443  0.8916
 2760SOL    MW410814   0.994   3.412   1.966 -0.1490  0.0803  0.2857
 2761SOL     OW10815   2.044   0.049   0.835 -0.5623  0.6504  0.3091
 2761SOL    HW210816   2.081   0.070   0.750 -0.6187 -2.3427 -0.5759
 2761SOL    HW310817   2.023   0.134   0.874  0.5601  2.1571 -2.1262
 2761SOL    MW410818   2.046   0.063   0.829  0.2640  0.3348  0.1623
 2762SOL     OW10819   1.840   3.077   3.701  0.8017  0.2698  0.2537
 2762SOL    HW210820   1.816   3.032   3.782  2.8306 -0.0686  0.7015
 2762SOL    HW310821   1.801   3.024   3.631 -0.2861  0.1235  0.9512
 2762SOL    MW410822   1.831   3.064   3.702  0.3029  0.0908 -0.3181
 2763SOL     OW10823   0.132   3.816   1.408 -0.2681  0.1770  0.1834
 2763SOL    HW210824   0.131   3.866   1.490 -0.4536  2.0594 -0.9097
 2763SOL    HW310825   0.145   3.725   1.435 -0.3068  0.7567  2.2890
 2763SOL    MW410826   0.134   3.810   1.422 -0.8380 -0.0802 -0.0706
 2764SOL     OW10827   1.337   1.125   6.253  0.0015  0.1633 -1.4001
 2764SOL    HW210828   1.245   1.123   6.281  0.1969  1.5526 -0.5762
 2764SOL    HW310829   1.386   1.137   6.333  1.1334 -2.8367 -1.5221
 2764SOL    MW410830   1.331   1.126   6.267  0.2868 -0.2440 -0.5467
 2765SOL     OW10831   4.689   4.424   0.216 -0.0808 -0.0594 -0.0907
 2765SOL    HW210832   4.602   4.436   0.176  0.4159 -1.4717 -1.7050
 2765SOL    HW310833   4.712   4.511   0.249 -1.7686  0.5183 -0.3171
 2765SOL    MW410834   4.680   4.437   0.215  0.1463 -0.3849 -0.1563
 2766SOL     OW10835   2.257   4.702   1.424  0.0175 -0.0140 -0.2132
 2766SOL    HW210836   2.296   4.636   1.481  0.7749  0.8636  0.2966
 2766SOL    HW310837   2.329   4.759   1.399 -0.7602  1.1163  0.0222
 2766SOL    MW410838   2.272   4.701   1.428 -0.5563  0.1081 -0.0801
 2767SOL     OW10839   4.156   0.128   5.776 -0.7017  0.1184  0.0642
 2767SOL    HW210840   4.106   0.047   5.761 -1.8600  1.1847 -2.4491
 2767SOL    HW310841   4.242   0.111   5.738 -0.7245 -0.1458  0.1283
 2767SOL    MW410842   4.161   0.115   5.769  0.0285 -0.5824  0.3056
 2768SOL     OW10843   5.974   1.874   0.219  0.2959 -0.2134  0.1853
 2768SOL    HW210844   5.884   1.903   0.233  0.9240  1.0606  2.1741
 2768SOL    HW310845   6.007   1.856   0.307  1.7142 -1.5732 -0.5748
 2768SOL    MW410846   5.967   1.876   0.232 -0.8397  0.0500  0.4137
 2769SOL     OW10847   1.620   6.218   6.187 -0.3385  0.3515  0.1379
 2769SOL    HW210848   1.614   6.264   6.271  0.2175 -0.1948  0.4777
 2769SOL    HW310849   1.541   6.165   6.183 -0.6353  0.7902  0.0617
 2769SOL    MW410850   1.609   6.217   6.198  0.9578 -0.0798  0.0433
 2770SOL     OW10851   1.737   0.871   3.248 -0.7863  0.3662 -0.3074
 2770SOL    HW210852   1.681   0.945   3.272 -2.4273 -0.9372  0.0072
 2770SOL    HW310853   1.738   0.815   3.326  0.9134  0.2853 -0.3374
 2770SOL    MW410854   1.730   0.873   3.262 -0.5571 -0.0864  0.0034
 2771SOL     OW10855   4.613   0.564   1.083  0.1120  0.3677  0.6298
 2771SOL    HW210856   4.595   0.472   1.098 -1.3333  0.3011 -1.1371
 2771SOL    HW310857   4.674   0.589   1.152  0.2746 -1.8151  1.3262
 2771SOL    MW410858   4.618   0.555   1.094  0.0210 -0.8467  0.6891
 2772SOL     OW10859   2.591   1.058   3.618 -0.5353 -0.5157  0.5077
 2772SOL    HW210860   2.642   0.979   3.636  0.1038  0.0645  1.3585
 2772SOL    HW310861   2.508   1.026   3.583  0.6817 -1.4787 -1.7441
 2772SOL    MW410862   2.587   1.044   3.616  0.1823 -0.2205  0.5037
 2773SOL     OW10863   1.831   0.649   5.044 -0.2695  0.5891 -0.2460
 2773SOL    HW210864   1.914   0.690   5.024 -0.0570  1.3408  1.9244
 2773SOL    HW310865   1.771   0.722   5.061 -1.2926  0.0560 -1.3914
 2773SOL    MW410866   1.834   0.664   5.043 -0.1393 -0.2571  0.0460
 2774SOL     OW10867   6.381   4.109   2.069 -0.0410 -0.5166  0.0799
 2774SOL    HW210868   6.365   4.019   2.042  1.0865 -0.7344  0.0711
 2774SOL    HW310869   6.397   4.103   2.163 -2.6242  0.0607  0.6264
 2774SOL    MW410870   6.381   4.097   2.078 -0.3541 -0.2976 -0.3362
 2775SOL     OW10871   0.366   2.182   2.027  0.3245 -0.3696  0.3385
 2775SOL    HW210872   0.290   2.170   1.970  2.4594 -1.1404 -2.5931
 2775SOL    HW310873   0.331   2.226   2.105 -2.8744  0.4629 -1.3838
 2775SOL    MW410874   0.351   2.186   2.030 -0.9282 -0.0143 -0.6933
 2776SOL     OW10875   3.822   5.789   3.115  0.4005 -0.0980 -0.3489
 2776SOL    HW210876   3.789   5.724   3.177  1.7721  1.0717  1.7721
 2776SOL    HW310877   3.763   5.785   3.041 -2.4022 -0.4558  1.7488
 2776SOL    MW410878   3.810   5.780   3.113 -0.6711  0.4199 -0.3938
 2777SOL     OW10879   4.361   5.839   1.149 -0.0528 -0.5507 -0.5142
 2777SOL    HW210880   4.371   5.887   1.067  0.4369  0.0365 -0.1229
 2777SOL    HW310881   4.447   5.847   1.192 -0.2523 -0.9798 -0.0169
 2777SOL    MW410882   4.374   5.846   1.144 -0.3926  0.0812 -0.0599
 2778SOL     OW10883   1.833   5.567   4.849  0.0100 -0.7791  0.4596
 2778SOL    HW210884   1.878   5.511   4.913  0.5777 -0.9370 -0.0680
 2778SOL    HW310885   1.824   5.512   4.772 -0.8431 -0.6491  0.4615
 2778SOL    MW410886   1.838   5.552   4.848  0.8504 -0.4031  0.2330
 2779SOL     OW10887   0.016   2.180   1.315 -0.1240 -0.0082 -0.4890
 2779SOL    HW210888  -0.058   2.122   1.298  0.3709 -0.3241 -1.6735
 2779SOL    HW310889   0.092   2.122   1.322  0.6865  0.5119 -3.4910
 2779SOL    MW410890   0.016   2.165   1.314  0.0502  0.0427 -0.0501
 2780SOL     OW10891   0.268   3.499   6.006 -0.2909 -0.8316  0.3913
 2780SOL    HW210892   0.255   3.405   5.992 -0.7343 -0.8197  0.7049
 2780SOL    HW310893   0.233   3.539   5.927  0.1359 -0.9427  0.1425
 2780SOL    MW410894   0.262   3.492   5.994 -0.5563 -0.0473 -0.1769
 2781SOL     OW10895   1.121   2.031   5.937  0.4074  0.6033  0.5715
 2781SOL    HW210896   1.174   2.031   6.016  0.7064  1.5840  0.3807
 2781SOL    HW310897   1.035   1.998   5.966  0.8929 -0.3093  1.0163
 2781SOL    MW410898   1.116   2.026   5.951 -0.3642 -0.3994  0.4593
 2782SOL     OW10899   4.605   3.471   6.024  0.4541  0.4451  0.1532
 2782SOL    HW210900   4.545   3.468   6.098 -0.2956  0.0778 -0.4644
 2782SOL    HW310901   4.567   3.413   5.959  0.4025  1.7730 -1.0534
 2782SOL    MW410902   4.592   3.463   6.025 -0.0046 -0.3401  0.0537
 2783SOL     OW10903   3.592   2.076   1.685 -0.1013 -0.3651 -0.4298
 2783SOL    HW210904   3.558   1.995   1.648 -1.1029  0.1163 -0.5834
 2783SOL    HW310905   3.659   2.104   1.623  0.1769 -1.0065 -0.4329
 2783SOL    MW410906   3.597   2.069   1.672 -0.8137 -0.1189  0.0406
 2784SOL     OW10907   5.912   0.339   6.235  0.2340  0.6234 -0.4853
 2784SOL    HW210908   5.986   0.287   6.266  0.3399  0.2017 -1.4244
 2784SOL    HW310909   5.891   0.303   6.149 -0.7422  1.0714 -0.4490
 2784SOL    MW410910   5.919   0.327   6.228  0.0175 -0.1293  0.3270
 2785SOL     OW10911   6.197   5.786   6.021 -0.2159  0.0620  0.1949
 2785SOL    HW210912   6.241   5.758   6.101 -0.2610  0.7500  0.4612
 2785SOL    HW310913   6.183   5.704   5.972  0.9099 -0.2226  0.3179
 2785SOL    MW410914   6.201   5.771   6.025  0.0278  0.0364  0.0860
 2786SOL     OW10915   2.072   0.905   0.356 -0.1846 -0.0967 -0.0365
 2786SOL    HW210916   2.064   0.813   0.328 -0.4421  0.0996 -0.6187
 2786SOL    HW310917   2.081   0.954   0.275  0.0383  0.3905  0.2779
 2786SOL    MW410918   2.072   0.899   0.342 -0.3853  0.2018  0.2472
 2787SOL     OW10919   1.981   4.213   1.927  0.4252 -0.0844 -0.7995
 2787SOL    HW210920   1.988   4.298   1.884  0.9101  1.6928  2.4991
 2787SOL    HW310921   1.895   4.214   1.968  0.3216 -1.3568 -0.9477
 2787SOL    MW410922   1.971   4.224   1.926  0.1397  0.3255  0.1830
 2788SOL     OW10923   4.080   1.476   2.539  0.0935 -0.9592  0.1475
 2788SOL    HW210924   4.116   1.421   2.470  0.7756  0.2590 -0.5091
 2788SOL    HW310925   4.006   1.521   2.499  0.1057 -0.7196  0.3909
 2788SOL    MW410926   4.075   1.475   2.525  0.5378  0.2074  0.4549
 2789SOL     OW10927   4.894   4.579   3.389  0.2088  0.4718  0.3192
 2789SOL    HW210928   4.844   4.500   3.367  0.0159  0.6801 -0.0021
 2789SOL    HW310929   4.842   4.621   3.458 -0.4269  1.0404 -0.4856
 2789SOL    MW410930   4.881   4.574   3.395 -0.3979  0.0452 -0.0865
 2790SOL     OW10931   0.510   4.974   6.298  0.0458  1.0417 -0.0798
 2790SOL    HW210932   0.583   5.034   6.279 -0.7830  2.0376 -0.2572
 2790SOL    HW310933   0.476   5.004   6.382  0.1073  0.3065  0.2102
 2790SOL    MW410934   0.515   4.986   6.306 -0.1962 -0.2972 -0.2234
 2791SOL     OW10935   0.434   0.780   1.839  0.0358  0.0374 -0.5701
 2791SOL    HW210936   0.459   0.860   1.886  0.3123  0.1656 -0.9351
 2791SOL    HW310937   0.454   0.798   1.748 -0.9186 -0.0473 -0.8070
 2791SOL    MW410938   0.440   0.793   1.833 -0.1117  0.0541 -0.1638
 2792SOL     OW10939   5.853   1.544   2.209 -0.7850  0.0696 -0.1805
 2792SOL    HW210940   5.798   1.556   2.132 -0.8908 -0.4307 -0.1847
 2792SOL    HW310941   5.937   1.513   2.175 -1.4325 -2.0745  0.0102
 2792SOL    MW410942   5.857   1.541   2.195  0.4934  0.5546 -0.4021
 2793SOL     OW10943   3.906   1.017   0.954 -0.7146 -0.1203  0.0378
 2793SOL    HW210944   3.894   0.985   0.864 -0.1074 -0.8114  0.1976
 2793SOL    HW310945   3.998   1.000   0.974 -1.0773 -0.9052  1.1500
 2793SOL    MW410946   3.917   1.011   0.945 -0.0612 -0.2357  0.4458
 2794SOL     OW10947   4.860   4.808   6.140 -0.1407  0.3486  0.3430
 2794SOL    HW210948   4.882   4.900   6.125  0.2788  0.2724  0.4760
 2794SOL    HW310949   4.765   4.805   6.130 -0.2341  0.9159  0.9403
 2794SOL    MW410950   4.850   4.820   6.137  0.3136 -0.0218 -0.3282
 2795SOL     OW10951   2.669   3.279   1.856  0.5315  0.1111  0.3100
 2795SOL    HW210952   2.630   3.198   1.889 -0.4520 -0.0764 -1.2203
 2795SOL    HW310953   2.605   3.347   1.877 -0.5111 -0.1259 -1.7726
 2795SOL    MW410954   2.655   3.277   1.863 -0.5169  0.0251  0.3189
 2796SOL     OW10955   2.939   5.573   2.872  0.1863  0.3961 -0.1305
 2796SOL    HW210956   2.865   5.633   2.882 -0.3172 -0.3928  1.3464
 2796SOL    HW310957   3.016   5.629   2.874 -0.2509  1.0149  1.5523
 2796SOL    MW410958   2.939   5.588   2.874 -0.2346  0.5689 -0.1106
 2797SOL     OW10959   5.368   5.624   3.040  0.3531 -0.0610  0.4792
 2797SOL    HW210960   5.379   5.719   3.036  1.2563 -0.1700 -0.1074
 2797SOL    HW310961   5.458   5.590   3.042  0.0363 -0.8772  1.6310
 2797SOL    MW410962   5.382   5.632   3.039  0.0512 -0.0555  0.8603
 2798SOL     OW10963   2.007   0.644   3.507 -0.1547 -0.2964  0.1739
 2798SOL    HW210964   2.090   0.686   3.485 -0.4360  0.6238  0.7969
 2798SOL    HW310965   1.974   0.609   3.424  0.4051  0.1564 -0.2433
 2798SOL    MW410966   2.013   0.645   3.493  0.4812 -0.1426 -0.4910
 2799SOL     OW10967   3.330   1.491   3.792  0.2895 -0.0986  0.4414
 2799SOL    HW210968   3.241   1.466   3.766  0.5561 -0.3769 -0.2238
 2799SOL    HW310969   3.387   1.441   3.733  0.8974 -0.1678  1.0752
 2799SOL    MW410970   3.326   1.481   3.781 -0.2326 -0.0297  0.1008
 2800SOL     OW10971   2.627   1.478   0.156 -0.7890 -0.1131 -0.0066
 2800SOL    HW210972   2.682   1.550   0.186 -0.5476  0.1237 -0.9747
 2800SOL    HW310973   2.539   1.503   0.183 -0.6293  0.2680  0.1771
 2800SOL    MW410974   2.623   1.491   0.163 -0.4927  0.0201 -0.2880
 2801SOL     OW10975   2.114   1.688   0.299  0.7784  0.1285  0.2779
 2801SOL    HW210976   2.200   1.648   0.290 -0.1723 -2.0483  0.3527
 2801SOL    HW310977   2.084   1.663   0.386  0.5718  1.9851  0.7908
 2801SOL    MW410978   2.122   1.680   0.309  0.1513 -0.0078  0.3282
 2802SOL     OW10979   1.320   2.653   3.496  0.1913 -0.4959 -0.0737
 2802SOL    HW210980   1.268   2.610   3.428  0.4356 -0.5664 -0.2142
 2802SOL    HW310981   1.383   2.706   3.448  0.3403 -0.5164  0.0999
 2802SOL    MW410982   1.321   2.654   3.481  0.3644  0.6437  0.5131
 2803SOL     OW10983   1.453   2.592   5.374  0.0224 -0.1448 -0.2007
 2803SOL    HW210984   1.399   2.666   5.402 -0.0115 -0.8403  1.7813
 2803SOL    HW310985   1.415   2.517   5.420  0.9111 -1.1457 -1.0684
 2803SOL    MW410986   1.441   2.592   5.384 -0.2328 -0.3363  0.4317
 2804SOL     OW10987   1.098   1.139   4.609 -0.6828  0.1806  0.3772
 2804SOL    HW210988   1.072   1.230   4.626 -1.9395 -0.0424 -0.2740
 2804SOL    HW310989   1.141   1.142   4.523 -0.9204  0.1213  0.2568
 2804SOL    MW410990   1.101   1.151   4.600  0.8030 -0.4463 -0.2048
 2805SOL     OW10991   2.157   4.196   5.006 -0.5624  0.3871  0.3790
 2805SOL    HW210992   2.204   4.132   4.953 -0.7287  0.2999  0.3358
 2805SOL    HW310993   2.087   4.146   5.048 -0.9674  0.6171  0.0020
 2805SOL    MW410994   2.154   4.181   5.004  0.4777 -0.4100  0.9719
 2806SOL     OW10995   2.948   5.435   2.238  0.8863 -0.0778  0.8510
 2806SOL    HW210996   2.901   5.368   2.188  0.8435  0.1337  0.6103
 2806SOL    HW310997   3.016   5.466   2.179 -0.3932  1.5930  0.1792
 2806SOL    MW410998   2.950   5.430   2.224  0.0424  0.1431 -0.1466
 2807SOL     OW10999   2.616   5.471   4.285 -0.1476  0.0307 -0.3094
 2807SOL    HW211000   2.577   5.550   4.322  0.0109 -0.6659  1.4750
 2807SOL    HW311001   2.553   5.402   4.305  0.7851 -0.6657  0.3035
 2807SOL    MW411002   2.603   5.472   4.293  0.3662 -0.7275 -0.1277
 2808SOL     OW11003   0.603   6.387   4.520  0.3573 -0.1484  0.0908
 2808SOL    HW211004   0.574   6.387   4.611 -1.1868  3.3158 -0.2256
 2808SOL    HW311005   0.660   6.464   4.513 -0.4551  0.3326 -2.0839
 2808SOL    MW411006   0.607   6.397   4.531 -0.0755 -0.7438 -0.4703
 2809SOL     OW11007   1.990   4.224   3.484  0.1617  0.0505  0.2397
 2809SOL    HW211008   1.984   4.128   3.490  0.4561  0.0846  1.2909
 2809SOL    HW311009   2.083   4.242   3.498  0.0690  0.5059  0.2621
 2809SOL    MW411010   2.002   4.213   3.486  0.1060 -0.0607 -0.2100
 2810SOL     OW11011   2.828   1.250   2.179  0.5653 -0.2081  0.1070
 2810SOL    HW211012   2.803   1.247   2.271  1.3723  0.9646  0.3820
 2810SOL    HW311013   2.798   1.336   2.148 -0.3222 -0.8615 -0.9202
 2810SOL    MW411014   2.821   1.261   2.187 -0.4156 -0.4445 -0.2965
 2811SOL     OW11015   5.569   2.989   0.462 -0.0431 -0.1996 -0.2494
 2811SOL    HW211016   5.572   3.045   0.384  0.2069 -2.0304 -1.6150
 2811SOL    HW311017   5.517   3.039   0.525  0.3579  1.6563 -1.3044
 2811SOL    MW411018   5.563   3.003   0.460  0.1051  0.2800 -0.1966
 2812SOL     OW11019   5.007   5.867   0.291 -0.1940 -0.2277  0.4157
 2812SOL    HW211020   5.023   5.807   0.364 -1.4936 -1.3594 -0.1686
 2812SOL    HW311021   4.925   5.911   0.314  0.9789  1.7301  1.0536
 2812SOL    MW411022   4.998   5.865   0.304  0.6385 -0.5936  0.1419
 2813SOL     OW11023   6.299   1.024   3.241  0.5428  0.0643 -0.5494
 2813SOL    HW211024   6.361   0.980   3.300 -0.8106 -0.0425  0.8551
 2813SOL    HW311025   6.224   0.965   3.237  0.1348  0.6216 -1.4902
 2813SOL    MW411026   6.297   1.010   3.248 -0.0830 -0.2301  0.4016
 2814SOL     OW11027   1.416   2.029   5.696 -0.1921 -0.5124  0.8307
 2814SOL    HW211028   1.421   2.006   5.789 -0.3244  0.8801  1.1986
 2814SOL    HW311029   1.467   2.109   5.688 -2.3743  0.9227  0.2489
 2814SOL    MW411030   1.423   2.036   5.707  0.1072 -0.2076 -0.0193
 2815SOL     OW11031   0.391   2.730   0.599  0.3103 -0.3315 -0.1961
 2815SOL    HW211032   0.318   2.764   0.651  0.4399  1.3097 -1.0296
 2815SOL    HW311033   0.456   2.801   0.599  0.4210 -0.3635 -2.3490
 2815SOL    MW411034   0.390   2.744   0.606  0.0246 -0.1330 -0.0143
 2816SOL     OW11035   4.333   0.888   2.141  0.2041 -0.1087  0.1577
 2816SOL    HW211036   4.270   0.816   2.149 -1.3265  1.1001 -0.6223
 2816SOL    HW311037   4.404   0.851   2.087  0.3801 -1.5861  1.3209
 2816SOL    MW411038   4.334   0.874   2.135  0.5285 -0.0168  0.1337
 2817SOL     OW11039   4.288   2.692   0.210  0.5855  0.5829  0.5501
 2817SOL    HW211040   4.341   2.760   0.168 -1.2358  1.1244 -1.0055
 2817SOL    HW311041   4.324   2.610   0.177  1.4127  0.8478  0.7442
 2817SOL    MW411042   4.300   2.690   0.200  0.6131 -0.1230  0.4927
 2818SOL     OW11043   1.010   2.832   2.404  0.3510 -0.3983 -0.3841
 2818SOL    HW211044   1.020   2.859   2.312  1.8891  2.9862  0.6043
 2818SOL    HW311045   0.917   2.846   2.423  0.6273  2.2481 -0.6189
 2818SOL    MW411046   0.999   2.838   2.394  0.0152  0.3453 -0.4466
 2819SOL     OW11047   6.027   4.120   3.703 -0.2320  0.2322  0.2190
 2819SOL    HW211048   5.976   4.060   3.759  0.6401 -0.6225  0.1234
 2819SOL    HW311049   5.971   4.197   3.695  0.4495  1.3474  4.0747
 2819SOL    MW411050   6.013   4.122   3.709 -0.0270 -0.2588  0.2792
 2820SOL     OW11051   2.404   4.833   0.817  0.0432 -0.1785  0.6448
 2820SOL    HW211052   2.402   4.823   0.722  4.4013  1.9697  0.0239
 2820SOL    HW311053   2.419   4.745   0.851  0.5515 -0.7083 -0.8909
 2820SOL    MW411054   2.406   4.820   0.809  0.3214 -0.0232 -0.5530
 2821SOL     OW11055   2.418   2.899   2.312 -0.0211 -0.4883 -0.0104
 2821SOL    HW211056   2.498   2.952   2.309 -0.9499  0.9517 -0.7588
 2821SOL    HW311057   2.440   2.825   2.368  1.9419 -0.3228 -0.4913
 2821SOL    MW411058   2.432   2.897   2.319  0.0141  0.3124  1.0288
 2822SOL     OW11059   0.267   5.886   6.028 -0.5702  0.0769 -0.1079
 2822SOL    HW211060   0.257   5.907   6.121 -1.7375 -1.0788  0.0550
 2822SOL    HW311061   0.191   5.926   5.986 -1.0443 -0.9360 -0.2634
 2822SOL    MW411062   0.256   5.894   6.035  0.5749  0.1137 -0.4257
 2823SOL     OW11063   4.989   6.365   2.398 -0.1017 -0.4208 -0.0194
 2823SOL    HW211064   5.057   6.425   2.366 -0.1842 -0.2079  0.2048
 2823SOL    HW311065   4.922   6.422   2.434  0.7849 -0.6888  2.2103
 2823SOL    MW411066   4.989   6.380   2.398  0.3611 -0.2169 -0.4197
 2824SOL     OW11067   0.259   2.898   1.653  0.0516  0.3241 -0.2127
 2824SOL    HW211068   0.305   2.826   1.609 -1.0626 -0.2479 -0.4943
 2824SOL    HW311069   0.290   2.977   1.608 -1.0660 -0.2407 -2.1421
 2824SOL    MW411070   0.269   2.899   1.641  0.2063  0.2123 -0.1233
 2825SOL     OW11071   5.321   4.638   6.334 -0.0411 -0.5426 -0.3871
 2825SOL    HW211072   5.296   4.549   6.359  1.4271 -0.6620  0.7835
 2825SOL    HW311073   5.341   4.681   6.417  1.3153  0.2166 -1.0825
 2825SOL    MW411074   5.320   4.632   6.348 -0.4212 -0.1630  0.4628
 2826SOL     OW11075   4.713   6.189   3.272  0.7244 -0.0765 -0.4955
 2826SOL    HW211076   4.760   6.249   3.330 -0.1819 -1.3729  1.7017
 2826SOL    HW311077   4.768   6.110   3.269  0.6017 -0.1448 -1.1853
 2826SOL    MW411078   4.727   6.187   3.279 -0.2406  0.0911  0.1513
 2827SOL     OW11079   3.110   4.493   2.386  0.4778  0.2489  0.2442
 2827SOL    HW211080   3.105   4.578   2.342  1.1235 -0.0611 -0.4363
 2827SOL    HW311081   3.030   4.489   2.439 -0.0838  0.8366 -0.5327
 2827SOL    MW411082   3.099   4.503   2.387 -0.2929  0.1205  0.7889
 2828SOL     OW11083   5.838   0.629   1.338  0.5041  0.1023  0.1531
 2828SOL    HW211084   5.805   0.717   1.323  2.3486  0.6327 -1.1855
 2828SOL    HW311085   5.818   0.610   1.430 -0.7721  1.4986  0.1971
 2828SOL    MW411086   5.831   0.638   1.348 -0.5030  0.7960 -0.4342
 2829SOL     OW11087   3.453   2.441   4.969  0.1814 -0.5671 -0.2358
 2829SOL    HW211088   3.426   2.475   5.054 -0.1518  1.1354 -0.9886
 2829SOL    HW311089   3.375   2.398   4.935  0.3978 -1.5092  0.4199
 2829SOL    MW411090   3.439   2.440   4.976 -0.1089  0.0631 -0.1036
 2830SOL     OW11091   4.079   1.007   1.860  0.1536 -0.1984  0.4251
 2830SOL    HW211092   4.031   0.938   1.906  2.1173 -1.1772  1.1311
 2830SOL    HW311093   4.040   1.008   1.772 -0.9695 -1.1024  0.8804
 2830SOL    MW411094   4.068   0.998   1.854  0.5299  0.3402 -0.1808
 2831SOL     OW11095   6.266   1.545   0.523  0.2139 -0.0715  0.2818
 2831SOL    HW211096   6.358   1.528   0.503  0.8003  1.6873  1.2115
 2831SOL    HW311097   6.264   1.552   0.618 -0.7029  0.7311  0.2155
 2831SOL    MW411098   6.278   1.544   0.533  0.5607 -0.1790  0.5472
 2832SOL     OW11099   0.006   3.189   0.857 -0.1112 -0.0482 -0.2693
 2832SOL    HW211100  -0.079   3.143   0.854  0.0305 -0.4034  0.6742
 2832SOL    HW311101   0.058   3.138   0.919 -0.8292  2.8352  2.9607
 2832SOL    MW411102   0.001   3.176   0.865  0.0949 -0.5888 -0.4353
 2833SOL     OW11103   5.100   6.166   0.528  0.1062  0.0943  0.1005
 2833SOL    HW211104   5.183   6.125   0.503 -0.3618 -0.8370 -0.0125
 2833SOL    HW311105   5.045   6.155   0.450  0.5937  2.8603 -0.7343
 2833SOL    MW411106   5.104   6.159   0.514 -0.6932 -0.5422  0.0288
 2834SOL     OW11107   3.604   0.204   2.985 -0.1570  0.1931  0.7472
 2834SOL    HW211108   3.687   0.248   2.999  0.2403 -0.5662  0.8571
 2834SOL    HW311109   3.628   0.113   2.967 -0.9825 -0.1322  1.2207
 2834SOL    MW411110   3.618   0.197   2.985 -0.3852 -0.5021  0.3805
 2835SOL     OW11111   4.883   2.291   5.460  0.0360 -0.0546  0.2733
 2835SOL    HW211112   4.959   2.235   5.444 -0.3799 -0.3583 -0.7434
 2835SOL    HW311113   4.917   2.364   5.512  0.5391 -1.3551  1.8407
 2835SOL    MW411114   4.898   2.293   5.464  0.0719 -0.2146 -0.0551
 2836SOL     OW11115   1.139   5.656   2.632  0.5243  0.4658  0.1177
 2836SOL    HW211116   1.077   5.601   2.584  0.4127  0.2758  0.4810
 2836SOL    HW311117   1.217   5.601   2.642  0.2066  0.1646  0.9846
 2836SOL    MW411118   1.141   5.641   2.627  0.5844 -0.2629  0.0602
 2837SOL     OW11119   4.587   3.422   5.190 -0.3716 -0.4797 -0.1200
 2837SOL    HW211120   4.615   3.425   5.099  0.1961  0.3457  0.0702
 2837SOL    HW311121   4.511   3.364   5.190 -0.1913 -0.7328 -1.0642
 2837SOL    MW411122   4.581   3.415   5.178  0.4435  0.0839  0.5262
 2838SOL     OW11123   4.918   4.299   5.494 -0.3336 -0.1578 -0.0402
 2838SOL    HW211124   4.996   4.267   5.539 -0.0675 -0.4306 -0.6878
 2838SOL    HW311125   4.949   4.327   5.408 -0.8040  0.5399  0.0122
 2838SOL    MW411126   4.932   4.298   5.489 -0.1713  0.5969 -0.3589
 2839SOL     OW11127   2.177   5.316   2.646  0.5829  0.0526 -0.6131
 2839SOL    HW211128   2.234   5.343   2.718  1.5959 -0.6379 -1.1322
 2839SOL    HW311129   2.169   5.221   2.656 -0.7398  0.1691 -0.3769
 2839SOL    MW411130   2.183   5.307   2.657 -0.2375  0.0991 -0.3356
 2840SOL     OW11131   1.897   5.216   1.824 -0.0053 -0.3084 -0.0415
 2840SOL    HW211132   1.848   5.204   1.905  0.7300  0.1600  0.4843
 2840SOL    HW311133   1.910   5.127   1.790  0.7761 -0.6152  1.0186
 2840SOL    MW411134   1.893   5.203   1.830 -0.1198  0.2031  0.0670
 2841SOL     OW11135   1.196   1.125   0.682 -0.5852  0.1214  0.2067
 2841SOL    HW211136   1.205   1.033   0.659  4.1337 -0.0344  1.6481
 2841SOL    HW311137   1.196   1.127   0.777 -1.3020  1.6238  0.2103
 2841SOL    MW411138   1.197   1.113   0.691 -0.1396 -0.1944 -0.1259
 2842SOL     OW11139   6.172   4.860   1.291 -0.5165 -0.5597  0.1091
 2842SOL    HW211140   6.171   4.837   1.198 -0.7375  1.3007 -0.3875
 2842SOL    HW311141   6.197   4.779   1.335  1.3511 -1.0701 -1.7095
 2842SOL    MW411142   6.175   4.847   1.284 -0.1379 -0.1051 -0.2507
 2843SOL     OW11143   4.234   2.820   2.671 -1.1560 -0.2611 -0.4117
 2843SOL    HW211144   4.178   2.755   2.627  0.0311 -0.5884 -1.4708
 2843SOL    HW311145   4.231   2.897   2.614 -2.0030  0.4084  0.4938
 2843SOL    MW411146   4.226   2.821   2.658  0.3984  0.0359 -0.0554
 2844SOL     OW11147   3.737   5.937   1.657 -0.1183  0.5015 -1.0211
 2844SOL    HW211148   3.701   5.856   1.695 -0.2079  1.1371  0.2997
 2844SOL    HW311149   3.668   6.002   1.670  1.1283  1.5425  0.8096
 2844SOL    MW411150   3.723   5.935   1.664 -0.1972  0.0402  0.2744
 2845SOL     OW11151   2.729   1.831   2.337 -0.3833 -0.1997  0.0648
 2845SOL    HW211152   2.767   1.918   2.325  0.8245 -1.0078 -2.5971
 2845SOL    HW311153   2.640   1.838   2.301 -0.3062 -0.0729 -0.0995
 2845SOL    MW411154   2.722   1.843   2.331 -0.3874  0.9226 -0.3909
 2846SOL     OW11155   5.511   5.311   3.723 -0.3648  0.6304 -0.2371
 2846SOL    HW211156   5.441   5.372   3.745 -0.9481  0.9614 -2.7589
 2846SOL    HW311157   5.531   5.328   3.631  1.9344 -0.5722 -0.0460
 2846SOL    MW411158   5.505   5.321   3.714 -0.0634  0.4041  0.4057
 2847SOL     OW11159   2.691   3.017   5.636  0.2753  0.0128  0.2495
 2847SOL    HW211160   2.706   2.923   5.643  0.8811 -0.0953 -1.8263
 2847SOL    HW311161   2.635   3.027   5.559  0.0791  1.3464  0.5409
 2847SOL    MW411162   2.686   3.006   5.627  0.2015 -0.0995 -1.0375
 2848SOL     OW11163   4.789   1.914   0.477 -0.2516  0.5073 -0.6105
 2848SOL    HW211164   4.725   1.853   0.513  2.3474 -1.5550  0.8452
 2848SOL    HW311165   4.826   1.869   0.402  0.9987  0.7164 -0.1329
 2848SOL    MW411166   4.785   1.900   0.472  0.6322 -0.0129 -0.1816
 2849SOL     OW11167   0.403   2.398   4.020 -0.1142  0.1987 -0.3802
 2849SOL    HW211168   0.439   2.338   4.085 -0.5309  1.2398  0.8421
 2849SOL    HW311169   0.426   2.485   4.052 -1.5265  0.7887 -0.8963
 2849SOL    MW411170   0.411   2.402   4.033 -0.3349  0.1187  0.4963
 2850SOL     OW11171   4.420   4.627   5.546  0.6048 -0.3465  0.2496
 2850SOL    HW211172   4.378   4.642   5.631 -0.8724 -0.4315 -0.4248
 2850SOL    HW311173   4.434   4.532   5.542  0.9935 -0.3011  0.5390
 2850SOL    MW411174   4.416   4.616   5.557 -0.1580  0.0321  0.0173
 2851SOL     OW11175   6.067   1.416   2.095 -0.4475  0.0677  0.6742
 2851SOL    HW211176   6.144   1.383   2.048 -1.4701 -1.0267 -0.2685
 2851SOL    HW311177   6.061   1.361   2.173 -0.5255 -0.1290  0.5296
 2851SOL    MW411178   6.076   1.405   2.099  0.1121 -0.1484 -0.2451
 2852SOL     OW11179   3.543   1.026   1.095  0.4360 -0.4932  0.0567
 2852SOL    HW211180   3.493   1.099   1.131  1.5086  1.7553 -2.7018
 2852SOL    HW311181   3.589   0.989   1.171 -0.9827  0.9909  1.7087
 2852SOL    MW411182   3.543   1.031   1.110  0.1549 -0.2844 -0.1059
 2853SOL     OW11183   2.467   5.822   1.170 -0.0959  0.2012 -0.2704
 2853SOL    HW211184   2.412   5.768   1.114  0.1790 -0.3228 -0.0425
 2853SOL    HW311185   2.543   5.767   1.189 -0.1338  0.4076  0.5272
 2853SOL    MW411186   2.470   5.808   1.166  0.2723  0.0526 -0.5633
 2854SOL     OW11187   5.864   4.081   0.640  0.4278 -0.3983 -0.4065
 2854SOL    HW211188   5.794   4.104   0.579 -0.6548 -0.1714  0.8742
 2854SOL    HW311189   5.927   4.032   0.587 -0.5581 -0.3731 -1.6498
 2854SOL    MW411190   5.863   4.078   0.625 -0.0648  0.5715 -0.0055
 2855SOL     OW11191   4.219   5.832   5.628 -0.3780  0.5353 -0.4314
 2855SOL    HW211192   4.225   5.890   5.704  1.1260  0.4809 -0.4807
 2855SOL    HW311193   4.298   5.851   5.577 -1.4609  0.7332 -2.1159
 2855SOL    MW411194   4.230   5.842   5.632 -0.0495  0.0955  1.1121
 2856SOL     OW11195   0.010   1.422   1.774  0.4801  0.2939 -0.3355
 2856SOL    HW211196   0.057   1.355   1.723  1.6515  0.9281 -0.1257
 2856SOL    HW311197  -0.079   1.421   1.739 -0.2789 -3.0590  1.2470
 2856SOL    MW411198   0.005   1.413   1.763 -0.2533 -0.7974 -0.2536
 2857SOL     OW11199   3.906   3.043   0.035  0.2325  0.0650 -0.6428
 2857SOL    HW211200   3.992   3.051   0.076 -0.1671 -1.4329  0.5641
 2857SOL    HW311201   3.918   2.978  -0.034  0.1399  0.0658 -0.6600
 2857SOL    MW411202   3.919   3.036   0.032  0.1849  0.1369 -0.1239
 2858SOL     OW11203   1.360   2.280   2.365 -0.1719  0.3416  0.3423
 2858SOL    HW211204   1.379   2.306   2.275 -0.8775  2.6295  0.7785
 2858SOL    HW311205   1.425   2.213   2.386  2.0038  1.9575 -0.8792
 2858SOL    MW411206   1.371   2.275   2.356 -0.1371  0.0097  0.0939
 2859SOL     OW11207   3.175   2.467   2.924  0.0606 -0.2361  0.4287
 2859SOL    HW211208   3.177   2.528   2.997 -1.8199  0.2178  0.1363
 2859SOL    HW311209   3.111   2.401   2.948  0.7707 -1.1257 -0.0311
 2859SOL    MW411210   3.167   2.467   2.937 -0.2615  0.2654 -0.1440
 2860SOL     OW11211   3.268   3.387   5.965  0.2877 -0.3068 -0.4155
 2860SOL    HW211212   3.190   3.336   5.940  0.9462 -0.6158 -1.9556
 2860SOL    HW311213   3.246   3.477   5.941 -0.0854 -0.1748  0.3871
 2860SOL    MW411214   3.255   3.392   5.958  0.0382  0.0047  0.0196
 2861SOL     OW11215   2.764   3.593   4.428  0.0896  0.0582 -0.1456
 2861SOL    HW211216   2.728   3.548   4.506 -1.3678  0.6136 -0.4627
 2861SOL    HW311217   2.854   3.563   4.423 -0.2443 -1.2284  0.8571
 2861SOL    MW411218   2.771   3.583   4.438 -0.3124 -0.6140 -0.4223
 2862SOL     OW11219   3.195   2.645   4.645  0.0656  0.0077 -0.1283
 2862SOL    HW211220   3.259   2.715   4.654 -1.4022  1.3438  0.4852
 2862SOL    HW311221   3.212   2.606   4.559  0.5839  1.4698 -0.7052
 2862SOL    MW411222   3.205   2.649   4.635 -0.0050 -0.2297 -0.1231
 2863SOL     OW11223   5.228   2.718   1.265 -0.1327 -0.5553 -0.0579
 2863SOL    HW211224   5.219   2.722   1.361 -0.7546  0.9241 -0.1442
 2863SOL    HW311225   5.275   2.637   1.249  0.3666 -0.6259  1.5390
 2863SOL    MW411226   5.233   2.708   1.276 -0.1128 -0.6717 -0.0773
 2864SOL     OW11227   5.570   3.106   5.046  0.3615  0.4947 -0.4307
 2864SOL    HW211228   5.519   3.025   5.043 -0.9184  1.2613 -0.4906
 2864SOL    HW311229   5.647   3.084   5.099  0.2648 -0.8640 -0.8155
 2864SOL    MW411230   5.573   3.092   5.053  0.0432  0.2564  0.1088
 2865SOL     OW11231   5.437   4.195   4.063 -0.2061 -0.2342 -0.5257
 2865SOL    HW211232   5.435   4.276   4.115 -0.8894 -0.3399 -0.3837
 2865SOL    HW311233   5.530   4.181   4.045  0.1768 -0.7881  1.5968
 2865SOL    MW411234   5.449   4.204   4.068  0.0437  0.4187  0.1518
 2866SOL     OW11235   0.466   1.784   3.232 -0.2072 -0.3907 -0.3684
 2866SOL    HW211236   0.372   1.802   3.237 -0.3186 -0.9230 -0.5332
 2866SOL    HW311237   0.473   1.700   3.188  0.4715  0.8280 -2.8054
 2866SOL    MW411238   0.455   1.776   3.227 -0.2242 -1.3093  0.3777
 2867SOL     OW11239   3.321   1.072   3.978  0.5032 -0.5827 -0.2942
 2867SOL    HW211240   3.230   1.079   3.948  0.9983  0.0182 -1.6858
 2867SOL    HW311241   3.336   0.977   3.986 -0.7810 -0.6924  1.7650
 2867SOL    MW411242   3.311   1.060   3.975  0.1444 -0.6488 -0.0779
 2868SOL     OW11243   5.693   4.033   1.987 -0.1833 -0.6895 -0.7367
 2868SOL    HW211244   5.654   4.120   1.978  1.9305  0.4700  0.6608
 2868SOL    HW311245   5.682   3.993   1.900 -0.0874  1.4406 -1.7995
 2868SOL    MW411246   5.686   4.039   1.974  0.2334  0.6166  0.6268
 2869SOL     OW11247   1.836   3.360   6.069  0.2573 -0.1188  0.4923
 2869SOL    HW211248   1.852   3.452   6.050 -1.3512 -0.3427 -2.5089
 2869SOL    HW311249   1.921   3.317   6.056  0.1404  0.3835 -2.8179
 2869SOL    MW411250   1.849   3.366   6.065 -0.2068 -0.2438  0.1265
 2870SOL     OW11251   5.959   1.609   4.166  0.2655  0.2056  0.0920
 2870SOL    HW211252   5.880   1.594   4.218 -1.1140 -1.0320 -2.2337
 2870SOL    HW311253   6.026   1.632   4.231 -2.0315  1.6716  2.1150
 2870SOL    MW411254   5.958   1.610   4.182  0.1506 -0.1915  0.0452
 2871SOL     OW11255   5.744   5.752   3.146 -0.2357 -0.0977 -0.2822
 2871SOL    HW211256   5.710   5.841   3.143  1.7596  0.6898 -0.7159
 2871SOL    HW311257   5.829   5.759   3.189  1.6209 -1.1773 -3.4295
 2871SOL    MW411258   5.750   5.764   3.151  0.2611  0.1236  0.2722
 2872SOL     OW11259   0.180   6.299   3.014 -0.6575 -0.0339 -0.3432
 2872SOL    HW211260   0.265   6.342   3.008  0.3491 -1.7854  0.4002
 2872SOL    HW311261   0.194   6.214   2.972 -1.7681 -0.7188  0.6148
 2872SOL    MW411262   0.193   6.293   3.008 -0.0153  0.0890 -0.2147
 2873SOL     OW11263   0.546   1.527   2.141  0.8618 -0.1923  0.7182
 2873SOL    HW211264   0.623   1.580   2.158 -0.1375  1.0932  1.3921
 2873SOL    HW311265   0.576   1.437   2.151  2.6236  0.2042 -0.5865
 2873SOL    MW411266   0.560   1.522   2.144  0.9516 -0.6786 -0.0906
 2874SOL     OW11267   1.865   4.626   5.908  0.1596 -0.0649 -0.6304
 2874SOL    HW211268   1.859   4.580   5.824 -2.2972 -1.0426 -0.0141
 2874SOL    HW311269   1.785   4.678   5.913  1.1609  1.4796  0.3168
 2874SOL    MW411270   1.854   4.627   5.898  0.4226  0.0321 -0.3237
 2875SOL     OW11271   4.980   1.865   0.671 -0.5030 -0.0026 -0.3763
 2875SOL    HW211272   4.921   1.871   0.596 -0.8708  0.2953 -0.0665
 2875SOL    HW311273   4.958   1.782   0.713 -1.3550  0.5363  0.2742
 2875SOL    MW411274   4.969   1.855   0.666  0.5527 -0.0536 -0.0847
 2876SOL     OW11275   5.584   5.314   5.756 -0.2121 -0.7130  0.1096
 2876SOL    HW211276   5.591   5.286   5.848 -0.4958 -0.7166  0.1303
 2876SOL    HW311277   5.670   5.352   5.737 -0.9545  1.7277  1.1944
 2876SOL    MW411278   5.597   5.315   5.766  0.3199 -0.1405 -0.2384
 2877SOL     OW11279   3.386   6.387   1.835 -0.5491  0.4835 -0.1060
 2877SOL    HW211280   3.376   6.481   1.853 -3.0962  0.5253 -1.2104
 2877SOL    HW311281   3.428   6.384   1.749 -0.0302  0.5946  0.1413
 2877SOL    MW411282   3.390   6.399   1.826  0.7732  0.3766  0.7730
 2878SOL     OW11283   6.097   4.919   5.216 -0.0830 -0.0467  0.6463
 2878SOL    HW211284   6.174   4.863   5.209  0.7548  1.2345 -1.3988
 2878SOL    HW311285   6.127   5.005   5.189 -1.7747  0.9705  1.8278
 2878SOL    MW411286   6.111   4.923   5.211 -0.1201  0.1610  0.4131
 2879SOL     OW11287   5.189   3.309   1.842 -0.3231 -0.8398 -0.4737
 2879SOL    HW211288   5.133   3.275   1.912 -1.5645  0.9275 -0.5335
 2879SOL    HW311289   5.242   3.377   1.885  0.7683 -1.5160 -0.7275
 2879SOL    MW411290   5.189   3.314   1.857  0.2477  0.4040  0.0644
 2880SOL     OW11291   3.562   0.975   5.424  0.4766 -0.2320  0.8299
 2880SOL    HW211292   3.546   0.956   5.516 -1.8148 -0.8203  0.3582
 2880SOL    HW311293   3.603   0.896   5.389  1.0678 -0.1209  1.2611
 2880SOL    MW411294   3.565   0.962   5.431  0.1291 -0.1629  0.2410
 2881SOL     OW11295   0.603   4.887   5.012  0.0920  0.1370 -0.0929
 2881SOL    HW211296   0.665   4.815   5.021  0.6494  0.6366  0.1836
 2881SOL    HW311297   0.601   4.928   5.099 -1.2823 -0.3792  0.1516
 2881SOL    MW411298   0.611   4.883   5.025  0.1333  0.8401 -0.4275
 2882SOL     OW11299   4.659   4.382   1.125  0.1594  0.1473  0.1742
 2882SOL    HW211300   4.582   4.425   1.087  0.5380 -0.1076 -0.9169
 2882SOL    HW311301   4.624   4.332   1.199 -0.4988  1.1576  0.5712
 2882SOL    MW411302   4.644   4.381   1.130  0.2628  0.0225  0.2660
 2883SOL     OW11303   4.764   6.194   5.246 -0.6386 -0.6712  0.7848
 2883SOL    HW211304   4.727   6.264   5.300  1.0528  0.7193  0.2146
 2883SOL    HW311305   4.755   6.226   5.156 -0.9669 -1.7568  0.4150
 2883SOL    MW411306   4.758   6.208   5.241 -0.0917  0.2742  1.0294
 2884SOL     OW11307   5.859   5.932   1.282  0.5504  0.1181 -0.0479
 2884SOL    HW211308   5.869   5.980   1.364  0.3910 -0.0172  0.0511
 2884SOL    HW311309   5.882   5.996   1.214 -0.1593  0.4925  0.0487
 2884SOL    MW411310   5.863   5.947   1.284 -0.4212 -0.0675 -0.0367
 2885SOL     OW11311   5.997   3.988   6.404  0.4601  0.4443 -0.1313
 2885SOL    HW211312   5.947   3.964   6.326 -1.1365  1.4320  0.5214
 2885SOL    HW311313   5.975   3.920   6.468  0.2390  0.6611  0.0293
 2885SOL    MW411314   5.987   3.976   6.402  0.0676  0.8144  0.1699
 2886SOL     OW11315   1.961   1.538   0.096  0.5378 -0.4906  0.3504
 2886SOL    HW211316   2.040   1.484   0.105 -0.1666 -1.3140  2.0312
 2886SOL    HW311317   1.977   1.613   0.153 -0.2254 -1.0892  1.3683
 2886SOL    MW411318   1.974   1.540   0.104  0.2990  0.1156 -0.1689
 2887SOL     OW11319   2.331   0.817   4.483 -0.0729  0.4309 -0.2102
 2887SOL    HW211320   2.388   0.841   4.410  0.4789  0.6527  0.2850
 2887SOL    HW311321   2.273   0.750   4.446  1.6558 -1.1274 -0.2818
 2887SOL    MW411322   2.331   0.811   4.468 -0.0034 -0.0075 -0.1030
 2888SOL     OW11323   1.677   2.895   6.415  0.1167  0.3403 -0.4395
 2888SOL    HW211324   1.631   2.844   6.483 -2.1995 -0.9251 -2.7866
 2888SOL    HW311325   1.635   2.981   6.418 -1.0380 -0.1690 -1.1741
 2888SOL    MW411326   1.665   2.899   6.425  0.0972  0.3534  0.2196
 2889SOL     OW11327   3.096   4.436   6.030  0.4475 -0.2417  0.2200
 2889SOL    HW211328   3.172   4.465   5.980 -0.1078 -0.1443 -0.5896
 2889SOL    HW311329   3.108   4.341   6.038  0.1002 -0.3905 -0.8853
 2889SOL    MW411330   3.108   4.427   6.024  0.0362 -0.5402 -0.0658
 2890SOL     OW11331   4.804   0.751   5.826  0.0046 -0.6776  0.5085
 2890SOL    HW211332   4.767   0.688   5.764 -0.6955 -0.2522  0.4839
 2890SOL    HW311333   4.846   0.817   5.771 -2.3827  0.8147  0.3483
 2890SOL    MW411334   4.805   0.751   5.811 -0.0186 -0.2617  0.3801
 2891SOL     OW11335   3.111   2.145   4.573 -0.0167 -0.1642  0.2279
 2891SOL    HW211336   3.172   2.201   4.524 -0.3560  0.8786  0.9486
 2891SOL    HW311337   3.064   2.096   4.505 -0.6488  1.4186 -0.5460
 2891SOL    MW411338   3.113   2.146   4.557  0.1757  0.8067 -0.0974
 2892SOL     OW11339   4.664   3.596   4.128  0.4751  0.4836 -0.4217
 2892SOL    HW211340   4.607   3.568   4.200  2.2618 -0.6508  0.6265
 2892SOL    HW311341   4.727   3.654   4.169 -0.9692  3.3437 -1.9262
 2892SOL    MW411342   4.665   3.600   4.143 -0.4846 -0.3671 -0.4105
 2893SOL     OW11343   6.193   5.379   4.888 -0.0731 -0.1213  0.0700
 2893SOL    HW211344   6.234   5.460   4.917  0.8362 -1.0490  1.4969
 2893SOL    HW311345   6.266   5.323   4.863 -0.6111 -0.9114  0.2432
 2893SOL    MW411346   6.208   5.382   4.888  0.6907  0.0373 -0.3649
 2894SOL     OW11347   3.270   0.883   5.164 -0.0758  0.8748  0.5518
 2894SOL    HW211348   3.268   0.921   5.252 -0.9483 -0.6830  1.2352
 2894SOL    HW311349   3.262   0.959   5.105 -1.5265  1.7960  1.8557
 2894SOL    MW411350   3.269   0.898   5.168 -0.4796 -0.3316 -0.0927
 2895SOL     OW11351   3.277   1.714   1.938 -0.4050 -0.6715 -0.3806
 2895SOL    HW211352   3.257   1.704   1.845  0.2365  0.1252 -0.6165
 2895SOL    HW311353   3.281   1.809   1.951  0.4173 -0.7842  0.2617
 2895SOL    MW411354   3.275   1.725   1.928  0.0666 -0.2168 -0.8013
 2896SOL     OW11355   0.038   4.914   3.631 -0.2926 -0.1804 -0.4457
 2896SOL    HW211356  -0.002   4.867   3.704  1.6685 -0.8639  0.2542
 2896SOL    HW311357   0.104   4.970   3.672  0.3623 -0.0599 -1.6175
 2896SOL    MW411358   0.042   4.915   3.646 -1.0269  0.2443 -0.2520
 2897SOL     OW11359   4.780   4.469   4.387 -0.0546 -0.2415  0.3248
 2897SOL    HW211360   4.817   4.541   4.438 -0.4298 -1.2982  2.2198
 2897SOL    HW311361   4.696   4.503   4.355  0.5586  0.7193 -0.2780
 2897SOL    MW411362   4.774   4.483   4.390  0.0749  0.4347  0.0802
 2898SOL     OW11363   3.930   4.075   0.684  0.1547 -0.1394  0.1570
 2898SOL    HW211364   3.970   4.061   0.770 -1.5915  1.0498  1.2186
 2898SOL    HW311365   3.887   3.992   0.663 -0.4102 -0.0604  0.9899
 2898SOL    MW411366   3.930   4.062   0.692 -0.2670 -0.7184 -0.3286
 2899SOL     OW11367   1.735   3.010   0.674 -0.2193  0.4516 -0.2878
 2899SOL    HW211368   1.788   2.947   0.625  1.1215  0.8012  0.6605
 2899SOL    HW311369   1.799   3.072   0.709 -1.2526  0.8108  1.0208
 2899SOL    MW411370   1.750   3.010   0.672 -0.0596  0.1294 -0.8758
 2900SOL     OW11371   3.536   0.534   5.288 -0.3724  0.1789  0.4116
 2900SOL    HW211372   3.493   0.577   5.362 -0.1303  1.9952 -0.4558
 2900SOL    HW311373   3.546   0.603   5.222 -0.3896 -1.3328 -1.2513
 2900SOL    MW411374   3.531   0.549   5.289  0.5779 -0.2937 -0.7654
 2901SOL     OW11375   1.063   2.663   5.945  0.5464  0.0513  0.5303
 2901SOL    HW211376   1.023   2.577   5.955  1.0994 -0.0996  1.5027
 2901SOL    HW311377   1.027   2.715   6.017  0.8285  0.3975  0.4250
 2901SOL    MW411378   1.053   2.659   5.956 -0.1215 -0.4520 -0.8151
 2902SOL     OW11379   1.571   1.724   4.539  0.3281  0.0222  0.6350
 2902SOL    HW211380   1.532   1.796   4.589 -0.3292  1.3188 -1.6200
 2902SOL    HW311381   1.511   1.650   4.554  0.0161  0.4310  1.5215
 2902SOL    MW411382   1.558   1.723   4.548 -0.2991 -0.2061  0.5800
 2903SOL     OW11383   3.165   0.829   1.425  0.0754  0.2284 -0.1641
 2903SOL    HW211384   3.220   0.791   1.357 -0.1881 -0.3502 -0.0569
 2903SOL    HW311385   3.216   0.819   1.506 -0.1648 -0.2623 -0.0728
 2903SOL    MW411386   3.179   0.823   1.427  0.6972  0.2509 -0.3514
 2904SOL     OW11387   4.854   0.465   2.235  0.5198 -0.1733 -0.3910
 2904SOL    HW211388   4.779   0.426   2.279  0.2910 -0.1640 -0.7684
 2904SOL    HW311389   4.819   0.540   2.187  0.6797 -0.4513 -0.9567
 2904SOL    MW411390   4.840   0.470   2.234  0.6933 -0.4461  0.2172
 2905SOL     OW11391   0.761   3.275   0.579 -0.6762 -0.2070 -0.2070
 2905SOL    HW211392   0.828   3.310   0.520 -0.2174 -0.0290  0.4194
 2905SOL    HW311393   0.685   3.332   0.564 -0.3938  0.1626 -0.2471
 2905SOL    MW411394   0.760   3.287   0.569  0.2887 -0.0964  0.1434
 2906SOL     OW11395   0.172   1.827   3.235 -0.3269  0.1484  0.1063
 2906SOL    HW211396   0.080   1.803   3.229  0.0570 -1.0168 -2.0111
 2906SOL    HW311397   0.205   1.779   3.310 -0.9984 -1.0751 -0.3610
 2906SOL    MW411398   0.164   1.818   3.244  0.1324 -0.0169  0.6616
 2907SOL     OW11399   5.712   0.280   1.435 -0.5856  0.0772  0.2929
 2907SOL    HW211400   5.723   0.185   1.434  2.2209  0.3200 -0.2214
 2907SOL    HW311401   5.675   0.300   1.349 -0.1892 -0.4643 -0.0132
 2907SOL    MW411402   5.709   0.270   1.423 -0.1865  0.2483  0.1353
 2908SOL     OW11403   6.130   5.912   5.370 -0.1131  0.5368  0.5110
 2908SOL    HW211404   6.166   5.984   5.319 -1.0080  2.3148  2.2372
 2908SOL    HW311405   6.051   5.886   5.322  0.6698  0.0925 -0.5736
 2908SOL    MW411406   6.124   5.918   5.357  0.2931  0.3372 -0.1826
 2909SOL     OW11407   2.511   1.598   5.332  0.4812  0.2594  0.2944
 2909SOL    HW211408   2.519   1.571   5.240 -0.4983  1.5012 -0.1806
 2909SOL    HW311409   2.418   1.589   5.352  0.3535  1.8370  0.5373
 2909SOL    MW411410   2.500   1.593   5.322 -0.2041 -0.0313  0.2182
 2910SOL     OW11411   0.023   5.995   5.895  0.1162 -0.1744 -0.1825
 2910SOL    HW211412   0.001   5.919   5.841 -1.3280  0.2425 -0.2083
 2910SOL    HW311413   0.049   6.062   5.832  1.9277 -0.7627 -0.1367
 2910SOL    MW411414   0.024   5.994   5.880 -0.3226  0.0286 -0.0951
 2911SOL     OW11415   0.727   2.763   1.089 -0.0805  0.1626  0.4505
 2911SOL    HW211416   0.806   2.723   1.051 -0.8117 -0.8727 -0.0260
 2911SOL    HW311417   0.715   2.717   1.173 -1.9312 -2.0232 -0.8871
 2911SOL    MW411418   0.736   2.751   1.095  0.2767  0.4014  0.5378
 2912SOL     OW11419   2.369   4.031   3.712  0.6082 -0.7538  0.5455
 2912SOL    HW211420   2.382   3.949   3.664 -0.1670 -1.2360  1.1239
 2912SOL    HW311421   2.425   4.023   3.789  0.9023 -0.5215  0.3588
 2912SOL    MW411422   2.378   4.019   3.716 -0.0876 -0.2320 -0.2966
 2913SOL     OW11423   3.559   4.638   1.436 -0.1575  0.4462  0.0347
 2913SOL    HW211424   3.573   4.669   1.347 -0.1456  0.5316  0.0666
 2913SOL    HW311425   3.604   4.553   1.439 -3.2854 -1.4419 -1.2040
 2913SOL    MW411426   3.567   4.631   1.425  0.2303  0.1453 -0.8263
 2914SOL     OW11427   1.023   0.159   0.156 -0.2015  0.3720  0.1707
 2914SOL    HW211428   1.082   0.123   0.222 -0.3603 -1.1512 -0.4830
 2914SOL    HW311429   1.064   0.242   0.129  0.8397  0.0717  0.8022
 2914SOL    MW411430   1.036   0.166   0.161 -0.1570  0.5837 -0.3466
 2915SOL     OW11431   4.005   5.318   4.302 -0.8129  0.8063 -0.5740
 2915SOL    HW211432   4.072   5.347   4.364 -0.1246 -0.0458 -0.8970
 2915SOL    HW311433   3.932   5.289   4.356 -0.6644  1.1231 -0.1987
 2915SOL    MW411434   4.004   5.318   4.317 -0.2169 -0.9369 -0.5997
 2916SOL     OW11435   5.016   5.976   5.745  0.2588 -0.5754  0.0481
 2916SOL    HW211436   4.966   6.004   5.669 -1.4962 -2.5379  0.3794
 2916SOL    HW311437   5.106   5.970   5.714 -0.4461 -1.6088 -1.9865
 2916SOL    MW411438   5.021   5.979   5.731 -0.6663  0.5054 -0.4445
 2917SOL     OW11439   3.897   3.209   0.389  0.5170  0.0995  0.0430
 2917SOL    HW211440   3.935   3.121   0.380 -0.1986 -0.1326 -0.9309
 2917SOL    HW311441   3.809   3.201   0.352 -0.0936  0.8889  1.2651
 2917SOL    MW411442   3.890   3.196   0.383 -0.4488  0.7495 -0.6702
 2918SOL     OW11443   1.029   1.356   3.172  0.1688  0.4260  0.0445
 2918SOL    HW211444   1.082   1.431   3.144  2.0097  0.1783  2.5339
 2918SOL    HW311445   1.023   1.365   3.268 -1.6130 -1.3400  0.1783
 2918SOL    MW411446   1.035   1.367   3.181  0.7439 -0.1495  0.0556
 2919SOL     OW11447   0.121   5.523   0.167  0.1825 -0.2048  0.1251
 2919SOL    HW211448   0.032   5.495   0.189 -0.0021 -0.8466 -1.3505
 2919SOL    HW311449   0.142   5.476   0.086  1.1309  1.4209 -0.6207
 2919SOL    MW411450   0.112   5.513   0.159 -0.2176 -0.2323 -0.1844
 2920SOL     OW11451   5.294   1.144   1.566  0.2486 -0.2849  0.5769
 2920SOL    HW211452   5.369   1.204   1.563  1.3227 -1.6019 -0.1093
 2920SOL    HW311453   5.315   1.083   1.637  0.0608 -0.9381  0.0768
 2920SOL    MW411454   5.307   1.144   1.575 -0.4816 -0.0463 -0.5569
 2921SOL     OW11455   4.413   4.933   2.540  0.3147  0.2531 -0.0213
 2921SOL    HW211456   4.439   4.966   2.626  0.9926 -1.4923  0.5022
 2921SOL    HW311457   4.494   4.928   2.490  0.5134 -1.7328  0.3764
 2921SOL    MW411458   4.427   4.936   2.545  0.0132  0.4405 -0.1685
 2922SOL     OW11459   1.440   6.278   1.585 -0.0977 -0.2434 -0.1818
 2922SOL    HW211460   1.428   6.300   1.677 -1.3992  3.6766 -1.0807
 2922SOL    HW311461   1.356   6.240   1.559 -0.2047 -0.1357 -0.0008
 2922SOL    MW411462   1.427   6.276   1.594  0.4940 -0.1803 -0.0320
 2923SOL     OW11463   0.315   2.489   0.490  0.1885  0.3740 -0.3294
 2923SOL    HW211464   0.338   2.567   0.540 -0.6830 -0.0530  0.7714
 2923SOL    HW311465   0.250   2.519   0.426 -0.3169  0.5121  0.2467
 2923SOL    MW411466   0.310   2.503   0.488  0.2641 -0.5739  0.0830
 2924SOL     OW11467   6.390   2.060   1.611 -0.5195  0.5488  0.4729
 2924SOL    HW211468   6.401   2.062   1.516 -2.0026  0.7021  0.2888
 2924SOL    HW311469   6.421   1.973   1.637 -2.5059 -0.5140 -0.5052
 2924SOL    MW411470   6.396   2.049   1.602 -0.1262 -0.0879  0.1843
 2925SOL     OW11471   2.435   6.169   4.013 -0.4662 -0.4931  0.6943
 2925SOL    HW211472   2.406   6.205   4.097 -0.6260  0.0355  0.4184
 2925SOL    HW311473   2.496   6.234   3.979 -1.7243  0.1670 -0.4070
 2925SOL    MW411474   2.439   6.182   4.019  0.1179 -0.0990 -0.1517
 2926SOL     OW11475   5.131   2.484   2.304  0.4721 -0.1446 -0.7722
 2926SOL    HW211476   5.170   2.572   2.297 -1.7301  1.0429  0.5236
 2926SOL    HW311477   5.052   2.489   2.250 -0.6644 -0.6574  0.7527
 2926SOL    MW411478   5.126   2.497   2.296  0.7123 -0.4742 -0.4075
 2927SOL     OW11479   3.202   1.052   1.895  0.0975  0.2150 -0.0652
 2927SOL    HW211480   3.132   1.117   1.904  0.9391  1.1775 -0.2738
 2927SOL    HW311481   3.250   1.059   1.977 -0.2723 -0.7246  0.2378
 2927SOL    MW411482   3.199   1.062   1.907 -0.1831  0.2099  0.6497
 2928SOL     OW11483   0.368   0.097   3.643  0.0830  0.0666 -0.0341
 2928SOL    HW211484   0.296   0.104   3.581 -0.5936 -0.0612  0.7134
 2928SOL    HW311485   0.344   0.157   3.714  1.0480  0.5325 -0.0877
 2928SOL    MW411486   0.355   0.106   3.645  0.3032  0.7013  0.9074
 2929SOL     OW11487   0.079   0.463   4.104 -0.4747  0.3199  0.3928
 2929SOL    HW211488   0.001   0.512   4.129 -1.1789 -0.2523 -0.6444
 2929SOL    HW311489   0.101   0.493   4.016  1.1170  1.2376  1.0504
 2929SOL    MW411490   0.072   0.473   4.096  0.6034  0.0150 -0.3528
 2930SOL     OW11491   5.644   1.137   0.484  0.5001 -0.1681 -0.2318
 2930SOL    HW211492   5.683   1.054   0.512 -0.9683 -1.0576 -0.7041
 2930SOL    HW311493   5.673   1.148   0.394  1.7240  0.5090  0.2168
 2930SOL    MW411494   5.653   1.128   0.476  0.1566  0.8225 -0.1443
 2931SOL     OW11495   6.412   6.196   4.435 -0.1633 -0.3853  0.3654
 2931SOL    HW211496   6.498   6.216   4.470 -0.4926  0.1770  0.8742
 2931SOL    HW311497   6.357   6.271   4.460 -0.7117 -0.5610 -0.2650
 2931SOL    MW411498   6.416   6.208   4.443  0.3899 -0.6132 -0.0489
 2932SOL     OW11499   3.300   3.709   0.014 -0.0329  0.0024 -0.1700
 2932SOL    HW211500   3.259   3.640  -0.039 -2.5820  1.0723  0.2652
 2932SOL    HW311501   3.289   3.788  -0.039  0.9781  0.4337  0.2525
 2932SOL    MW411502   3.293   3.710  -0.000  0.1821 -0.2706  0.2510
 2933SOL     OW11503   3.895   3.937   3.707  0.5968 -0.5127  0.2241
 2933SOL    HW211504   3.947   3.856   3.705  0.7110 -0.5054  1.7015
 2933SOL    HW311505   3.884   3.961   3.615  0.5332 -2.2242 -0.2392
 2933SOL    MW411506   3.900   3.929   3.694  0.2979 -0.5469  0.4925
 2934SOL     OW11507   6.098   4.984   3.798 -0.8211  0.0763  0.7543
 2934SOL    HW211508   6.006   4.996   3.824 -0.8125 -0.3893  1.0142
 2934SOL    HW311509   6.100   4.897   3.759 -0.8434  0.7887 -0.8961
 2934SOL    MW411510   6.086   4.974   3.796  0.3418  0.4841  0.4783
 2935SOL     OW11511   4.782   4.652   1.101  0.4646 -0.1470  0.4067
 2935SOL    HW211512   4.793   4.690   1.188  0.7769  0.0503  0.2819
 2935SOL    HW311513   4.720   4.580   1.114  0.8212 -0.3755  0.8681
 2935SOL    MW411514   4.776   4.647   1.114 -0.2062 -0.5035  0.2796
 2936SOL     OW11515   2.683   5.683   3.122 -0.1071 -0.1701 -0.6365
 2936SOL    HW211516   2.671   5.711   3.031  0.8702 -0.6477 -0.9172
 2936SOL    HW311517   2.710   5.592   3.117 -1.9668 -0.8240  0.2289
 2936SOL    MW411518   2.685   5.675   3.110  0.3244 -0.1534  0.3812
 2937SOL     OW11519   4.642   1.642   3.194  0.6790 -0.4067 -0.2476
 2937SOL    HW211520   4.732   1.669   3.208  0.9679 -1.1544 -0.6259
 2937SOL    HW311521   4.623   1.668   3.104  0.6974 -0.7475 -0.3500
 2937SOL    MW411522   4.651   1.649   3.184 -0.0710 -0.6496  0.0972
 2938SOL     OW11523   0.786   0.984   5.214 -0.6159  0.6422 -0.1808
 2938SOL    HW211524   0.750   1.072   5.210 -1.1714  0.3973 -0.8313
 2938SOL    HW311525   0.734   0.939   5.281 -1.5325  0.3064 -1.0773
 2938SOL    MW411526   0.774   0.989   5.222 -0.2017 -0.2111  0.2180
 2939SOL     OW11527   3.864   0.529   1.862  0.5277 -0.4493 -0.0108
 2939SOL    HW211528   3.778   0.495   1.888  0.6135  0.0500  0.9419
 2939SOL    HW311529   3.885   0.480   1.782  0.2903 -2.0631  0.8745
 2939SOL    MW411530   3.855   0.518   1.855  0.0625 -0.1795 -0.0065
 2940SOL     OW11531   5.718   2.492   0.390  0.6544 -0.3476  0.5226
 2940SOL    HW211532   5.751   2.560   0.449  0.5072 -1.6261  2.1416
 2940SOL    HW311533   5.664   2.540   0.327  2.1766  1.2723  0.3647
 2940SOL    MW411534   5.715   2.508   0.389 -0.7039 -0.3253  0.4718
 2941SOL     OW11535   5.808   2.840   1.473 -0.2554  0.0152  0.0222
 2941SOL    HW211536   5.852   2.783   1.536 -1.2116 -0.7908 -0.0206
 2941SOL    HW311537   5.788   2.783   1.398  0.4825  0.8550 -0.8536
 2941SOL    MW411538   5.812   2.825   1.471 -0.3822  0.1114  0.1322
 2942SOL     OW11539   5.765   0.908   3.834  0.3431  0.3237 -0.0881
 2942SOL    HW211540   5.755   0.814   3.844 -1.8822  0.5057  0.0111
 2942SOL    HW311541   5.787   0.921   3.742 -0.4509 -0.2625 -0.3723
 2942SOL    MW411542   5.766   0.897   3.824  0.3413  0.4942 -0.7869
 2943SOL     OW11543   4.687   0.174   0.278  0.2154  0.2737  0.4963
 2943SOL    HW211544   4.683   0.151   0.371 -1.8680  1.7535  0.8568
 2943SOL    HW311545   4.711   0.266   0.276 -3.0545  1.2552 -0.1304
 2943SOL    MW411546   4.689   0.183   0.290  0.5003  0.5204 -0.4347
 2944SOL     OW11547   5.877   5.346   0.388 -0.7699 -0.0777 -0.2254
 2944SOL    HW211548   5.864   5.252   0.403  2.7176 -0.4371  1.4523
 2944SOL    HW311549   5.930   5.351   0.309 -1.9024  0.6193 -0.9752
 2944SOL    MW411550   5.882   5.334   0.379  0.6501 -0.1719  0.3311
 2945SOL     OW11551   0.463   4.668   4.125  0.3566 -0.4110 -0.0271
 2945SOL    HW211552   0.488   4.737   4.064  0.7094 -0.6470 -0.1530
 2945SOL    HW311553   0.413   4.713   4.194  1.0039  0.0436  0.1480
 2945SOL    MW411554   0.460   4.683   4.126 -0.1058 -0.2148 -0.1875
 2946SOL     OW11555   3.601   4.433   4.864  0.4546 -0.0980 -0.3841
 2946SOL    HW211556   3.560   4.412   4.779  0.9452 -1.0924 -0.3871
 2946SOL    HW311557   3.629   4.524   4.855 -0.8255  0.2916 -0.7476
 2946SOL    MW411558   3.599   4.442   4.851 -0.0056 -0.5096 -0.5388
 2947SOL     OW11559   0.672   3.534   5.351 -0.2507 -0.4307 -0.2426
 2947SOL    HW211560   0.601   3.472   5.333  0.1044 -1.6832  2.1862
 2947SOL    HW311561   0.736   3.517   5.283 -0.0063 -3.1034  0.5357
 2947SOL    MW411562   0.671   3.524   5.340  0.4301  0.2898 -0.3559
 2948SOL     OW11563   0.146   4.717   6.317 -0.9162  0.3294  0.2840
 2948SOL    HW211564   0.151   4.800   6.268  1.4035  0.4935  0.6832
 2948SOL    HW311565   0.060   4.681   6.294 -0.3903  0.8857 -3.1230
 2948SOL    MW411566   0.135   4.723   6.308  0.5247 -0.1496 -0.0666
 2949SOL     OW11567   5.648   2.776   1.990  0.1830 -0.3686 -0.2630
 2949SOL    HW211568   5.697   2.704   1.951  0.5053 -0.4469  0.2890
 2949SOL    HW311569   5.707   2.814   2.054  0.6051  1.3493 -1.5965
 2949SOL    MW411570   5.662   2.772   1.993 -0.5857  0.0106 -0.4781
 2950SOL     OW11571   0.459   0.750   2.904  0.5602  0.1492 -0.7295
 2950SOL    HW211572   0.499   0.764   2.990  0.5771 -2.3345 -0.2585
 2950SOL    HW311573   0.414   0.832   2.885 -1.1318  0.1616  2.5817
 2950SOL    MW411574   0.458   0.763   2.913 -0.2087 -0.7192  0.2389
 2951SOL     OW11575   1.028   2.948   5.594 -0.1365 -0.8857  0.1364
 2951SOL    HW211576   1.083   3.011   5.548 -0.1826 -0.2372  0.9361
 2951SOL    HW311577   0.955   2.932   5.534 -0.4260  0.2870  0.1443
 2951SOL    MW411578   1.025   2.954   5.580 -0.5099 -0.1028  0.2601
 2952SOL     OW11579   6.204   2.231   5.139 -0.2193  0.0978  0.5302
 2952SOL    HW211580   6.121   2.229   5.091  0.7183 -0.3801 -1.1309
 2952SOL    HW311581   6.209   2.144   5.180  0.3990 -0.6727 -1.0916
 2952SOL    MW411582   6.194   2.219   5.138  0.1682  0.3358 -0.3367
 2953SOL     OW11583   2.968   5.948   1.308 -0.0743  0.0326  0.3828
 2953SOL    HW211584   2.941   5.857   1.323 -1.2493  0.1416 -0.8776
 2953SOL    HW311585   3.010   5.947   1.222  0.9430  0.4960  0.8625
 2953SOL    MW411586   2.970   5.936   1.299 -0.2159 -0.5763 -0.1622
 2954SOL     OW11587   5.068   3.434   2.518 -0.3213  0.3439  0.2399
 2954SOL    HW211588   5.136   3.407   2.580  0.9958  2.2652 -0.2874
 2954SOL    HW311589   4.988   3.396   2.553  0.5936  0.2250  2.3591
 2954SOL    MW411590   5.067   3.425   2.531 -0.2428  0.6941  0.3283
 2955SOL     OW11591   1.786   1.657   2.872 -0.3075  0.3815  0.0904
 2955SOL    HW211592   1.728   1.698   2.808  1.0664  0.4472 -1.1528
 2955SOL    HW311593   1.850   1.610   2.820 -0.3088 -1.2361  1.4621
 2955SOL    MW411594   1.786   1.657   2.857  0.9069 -0.1688  0.0258
 2956SOL     OW11595   0.479   2.756   4.419  0.0058 -0.4188 -0.2238
 2956SOL    HW211596   0.424   2.835   4.423  0.3388 -0.1429 -0.8707
 2956SOL    HW311597   0.417   2.684   4.425 -0.2513 -0.1255  1.0659
 2956SOL    MW411598   0.463   2.757   4.420  0.6493 -0.6590 -0.4520
 2957SOL     OW11599   0.320   5.174   0.694 -0.1560  0.3649  0.0550
 2957SOL    HW211600   0.245   5.115   0.697  0.0683  0.0935  0.3200
 2957SOL    HW311601   0.305   5.227   0.615 -1.0302  0.8492  0.5260
 2957SOL    MW411602   0.308   5.173   0.684 -0.5807  0.5275  0.3769
 2958SOL     OW11603   4.287   1.842   5.508 -0.5300  0.5752  0.4190
 2958SOL    HW211604   4.291   1.937   5.510 -1.4474  0.6347  0.0923
 2958SOL    HW311605   4.283   1.820   5.414 -0.2581  0.2123  0.4900
 2958SOL    MW411606   4.287   1.851   5.496  0.0137 -0.4406  0.4490
 2959SOL     OW11607   5.636   4.339   1.148  0.2421 -0.3089  0.3515
 2959SOL    HW211608   5.663   4.282   1.221  1.9586 -0.6410 -0.4871
 2959SOL    HW311609   5.556   4.381   1.179  2.4168  1.8735  3.7347
 2959SOL    MW411610   5.629   4.337   1.162 -0.0674  0.4122  0.5785
 2960SOL     OW11611   3.991   5.966   5.526  0.4317  0.5503  0.0242
 2960SOL    HW211612   4.075   5.923   5.535  0.3509  0.6295  1.3727
 2960SOL    HW311613   3.958   5.975   5.616 -1.5054 -0.4436 -0.5132
 2960SOL    MW411614   3.997   5.962   5.539  0.1860 -0.4933 -0.7383
 2961SOL     OW11615   5.733   1.309   3.966 -0.0250 -0.5566 -0.2464
 2961SOL    HW211616   5.824   1.281   3.975 -0.0910 -0.7255 -0.1113
 2961SOL    HW311617   5.738   1.405   3.964  0.0162 -0.4877  1.4833
 2961SOL    MW411618   5.746   1.318   3.967  0.1515  0.8368 -0.1194
 2962SOL     OW11619   4.442   4.536   0.150  0.2301 -0.2988 -0.4298
 2962SOL    HW211620   4.410   4.553   0.239  1.0929  2.4171 -0.5387
 2962SOL    HW311621   4.373   4.486   0.108 -0.9288 -0.1945  1.2773
 2962SOL    MW411622   4.429   4.532   0.156 -0.4785 -0.0980 -0.1673
 2963SOL     OW11623   0.588   4.733   5.993 -0.4381  0.3205  0.1193
 2963SOL    HW211624   0.532   4.808   5.977 -0.0236  1.1097  2.1055
 2963SOL    HW311625   0.675   4.761   5.962 -0.4201  0.3994  0.2424
 2963SOL    MW411626   0.592   4.747   5.987  0.3614  0.2796  0.0973
 2964SOL     OW11627   3.662   0.050   1.478  0.3311  0.6215 -0.3221
 2964SOL    HW211628   3.660   0.144   1.460 -0.8982  1.0329  1.7091
 2964SOL    HW311629   3.743   0.038   1.528  0.2568  0.6845 -0.1858
 2964SOL    MW411630   3.673   0.061   1.482 -0.0545  0.0654  0.4404
 2965SOL     OW11631   5.714   0.977   5.647 -0.2482  0.0257 -0.7986
 2965SOL    HW211632   5.791   0.958   5.593  0.1158 -0.0531 -0.2620
 2965SOL    HW311633   5.658   1.032   5.592  0.8821  1.3479 -0.6775
 2965SOL    MW411634   5.717   0.982   5.633 -0.7539  0.6707  0.2382
 2966SOL     OW11635   0.839   5.847   0.396 -0.5864 -0.8704 -0.3472
 2966SOL    HW211636   0.752   5.885   0.380  0.0819  1.7598  1.6532
 2966SOL    HW311637   0.828   5.798   0.477 -0.0990 -0.0579  0.2180
 2966SOL    MW411638   0.826   5.845   0.405  0.6634 -0.7597  0.4119
 2967SOL     OW11639   4.089   3.719   2.622  0.1779 -0.0188  0.2559
 2967SOL    HW211640   4.118   3.656   2.556 -0.2912 -0.0231  0.0486
 2967SOL    HW311641   4.152   3.790   2.617  0.8240 -0.5567  0.6251
 2967SOL    MW411642   4.101   3.720   2.612  0.0989  0.1891  0.1451
 2968SOL     OW11643   1.545   3.252   3.886 -0.4004 -0.2574 -0.4184
 2968SOL    HW211644   1.543   3.343   3.913  2.2084 -0.6714  1.6304
 2968SOL    HW311645   1.548   3.254   3.791 -2.4441  1.6432 -0.5124
 2968SOL    MW411646   1.545   3.264   3.877 -0.0812 -0.4998  0.1355
 2969SOL     OW11647   3.965   5.686   4.623 -0.5711  0.1466 -0.1169
 2969SOL    HW211648   3.895   5.657   4.565 -0.4178 -0.7003  0.1074
 2969SOL    HW311649   4.001   5.764   4.581 -0.7529 -0.1956 -0.9256
 2969SOL    MW411650   3.960   5.693   4.610 -0.8554 -0.4169  0.1071
 2970SOL     OW11651   1.057   0.254   2.220 -0.0783  0.4488 -0.1647
 2970SOL    HW211652   1.026   0.232   2.132 -0.0235 -0.5867  0.0594
 2970SOL    HW311653   0.977   0.259   2.273  0.0284 -3.8673  0.7837
 2970SOL    MW411654   1.042   0.252   2.215 -0.4248  0.4475 -0.3773
 2971SOL     OW11655   3.024   5.849   4.680  0.5018  0.2002  0.2312
 2971SOL    HW211656   3.038   5.910   4.753  1.8925  0.3193 -0.1070
 2971SOL    HW311657   3.086   5.778   4.697  0.4283 -0.0504 -0.5360
 2971SOL    MW411658   3.034   5.848   4.692  0.0947 -0.6419 -0.8226
 2972SOL     OW11659   1.522   2.450   1.850 -0.4876 -0.1105  0.3645
 2972SOL    HW211660   1.598   2.507   1.841 -1.6981  2.1064  2.6624
 2972SOL    HW311661   1.456   2.490   1.793 -0.6610 -0.5540  0.2545
 2972SOL    MW411662   1.523   2.463   1.841  0.1824 -0.1126  0.4428
 2973SOL     OW11663   2.758   2.333   5.959 -0.2872 -0.3270 -0.0978
 2973SOL    HW211664   2.766   2.427   5.949 -0.1750 -0.2418  0.7123
 2973SOL    HW311665   2.664   2.317   5.967 -0.2091 -0.0137  2.0065
 2973SOL    MW411666   2.747   2.343   5.959  0.0764 -0.1156  0.1249
 2974SOL     OW11667   0.324   2.515   4.372  0.5527  0.2540  0.5696
 2974SOL    HW211668   0.231   2.514   4.395  0.6613  0.2735  1.0053
 2974SOL    HW311669   0.327   2.475   4.285  0.1266  0.3353  0.5153
 2974SOL    MW411670   0.312   2.509   4.363 -0.4385  0.0410 -0.5504
 2975SOL     OW11671   0.957   4.555   2.978 -0.1131 -0.2123  0.3409
 2975SOL    HW211672   1.006   4.479   3.008 -0.4550 -0.1639  1.0496
 2975SOL    HW311673   0.865   4.530   2.990 -0.2281  0.2698  0.4869
 2975SOL    MW411674   0.951   4.541   2.984 -0.8802 -0.5530 -0.4455
 2976SOL     OW11675   3.177   0.002   0.433 -0.0524  0.1069  0.4279
 2976SOL    HW211676   3.228   0.043   0.363  0.7917  1.1562  1.6209
 2976SOL    HW311677   3.203   0.048   0.512  1.7598 -3.3546  2.0674
 2976SOL    MW411678   3.187   0.013   0.434 -0.1773  0.2111 -0.0771
 2977SOL     OW11679   5.036   5.588   1.765 -0.4916  0.0544 -0.3522
 2977SOL    HW211680   5.020   5.560   1.855 -0.4708  2.0289  0.3166
 2977SOL    HW311681   5.087   5.517   1.726 -2.3010 -1.8274  0.5118
 2977SOL    MW411682   5.041   5.575   1.772  0.5417  0.1363  0.1181
 2978SOL     OW11683   2.518   1.836   4.876 -0.0103 -0.3813 -0.1839
 2978SOL    HW211684   2.487   1.811   4.789  0.2959  3.3848 -1.5307
 2978SOL    HW311685   2.476   1.920   4.894  1.7431  0.0729  2.2969
 2978SOL    MW411686   2.509   1.843   4.867 -0.2625  0.0567  0.3066
 2979SOL     OW11687   5.934   1.892   3.365 -0.1082 -0.5830 -0.3916
 2979SOL    HW211688   5.979   1.811   3.389  0.5786 -0.0375  0.2441
 2979SOL    HW311689   5.866   1.902   3.432  0.9478  0.2505  0.6111
 2979SOL    MW411690   5.931   1.883   3.377 -0.2312 -0.4158 -0.2091
 2980SOL     OW11691   0.774   5.596   4.175 -0.3763 -0.2005 -0.5036
 2980SOL    HW211692   0.766   5.609   4.080 -1.7861  1.4231 -0.2089
 2980SOL    HW311693   0.867   5.582   4.190  0.0728  0.9519 -1.9805
 2980SOL    MW411694   0.785   5.596   4.164 -0.5163  0.5932  0.0147
 2981SOL     OW11695   0.794   3.693   3.639 -0.1442 -0.1196  0.1378
 2981SOL    HW211696   0.756   3.775   3.671 -0.9335 -1.2016  2.1258
 2981SOL    HW311697   0.854   3.665   3.708  1.2545 -0.4983 -1.1746
 2981SOL    MW411698   0.797   3.700   3.652  0.2895 -0.4670  0.4848
 2982SOL     OW11699   0.596   3.659   0.283  0.1912 -0.4670 -0.0295
 2982SOL    HW211700   0.526   3.600   0.256  1.0621 -1.3547 -0.3958
 2982SOL    HW311701   0.573   3.684   0.372 -0.8041 -0.4100 -0.2872
 2982SOL    MW411702   0.584   3.655   0.291 -0.2265  0.2270 -0.0479
 2983SOL     OW11703   2.820   0.333   3.804  0.3558 -0.2789 -0.2132
 2983SOL    HW211704   2.817   0.308   3.896 -0.7287 -0.7256 -0.3528
 2983SOL    HW311705   2.776   0.418   3.801 -0.0009 -0.4657 -0.3711
 2983SOL    MW411706   2.814   0.341   3.815 -0.2686  0.4511 -0.4604
 2984SOL     OW11707   3.899   6.000   5.801  0.5857  0.0594  0.0064
 2984SOL    HW211708   3.807   6.026   5.801  0.3068 -0.8976  0.6000
 2984SOL    HW311709   3.933   6.030   5.885  1.2183  1.7180 -0.8026
 2984SOL    MW411710   3.891   6.007   5.812 -0.0219  0.5041  0.6339
 2985SOL     OW11711   2.226   2.657   6.369 -0.4294  0.5543 -0.3871
 2985SOL    HW211712   2.287   2.593   6.405 -2.2574 -0.0923  1.7509
 2985SOL    HW311713   2.177   2.609   6.302 -1.1774 -0.0541  0.5778
 2985SOL    MW411714   2.228   2.642   6.365  0.2488 -0.6121 -0.0106
 2986SOL     OW11715   4.871   0.877   1.070 -0.4312 -0.1522 -0.3118
 2986SOL    HW211716   4.808   0.867   1.142 -0.1360  0.6285  0.0692
 2986SOL    HW311717   4.823   0.848   0.992 -1.2975  0.4954 -0.0428
 2986SOL    MW411718   4.856   0.872   1.069  0.3632  0.0002  0.1275
 2987SOL     OW11719   6.127   4.780   4.415 -0.6219 -0.9110  0.0592
 2987SOL    HW211720   6.055   4.840   4.435 -1.8656 -1.9202 -1.1385
 2987SOL    HW311721   6.206   4.831   4.428 -1.5887  0.5359  0.4936
 2987SOL    MW411722   6.128   4.794   4.419 -0.1742  0.5127 -0.4901
 2988SOL     OW11723   2.895   3.837   3.471  0.1310  0.1176  0.2302
 2988SOL    HW211724   2.904   3.873   3.559 -0.3845  1.0210 -0.0694
 2988SOL    HW311725   2.959   3.766   3.467  0.5893  0.4669  1.1264
 2988SOL    MW411726   2.904   3.832   3.482 -0.2399 -0.1226  0.4817
 2989SOL     OW11727   5.489   5.004   0.333 -0.0977 -0.1114  0.5562
 2989SOL    HW211728   5.401   5.032   0.356  0.1775  1.1046  0.2180
 2989SOL    HW311729   5.503   4.923   0.382 -2.0695 -1.3696 -0.8138
 2989SOL    MW411730   5.480   4.997   0.342  0.2291  0.2422 -0.4355
 2990SOL     OW11731   6.088   4.421   5.417  0.1464  0.1798  0.3499
 2990SOL    HW211732   6.012   4.470   5.387  0.2189 -0.4418 -0.9070
 2990SOL    HW311733   6.069   4.401   5.509 -1.3364 -0.1955 -0.0218
 2990SOL    MW411734   6.076   4.424   5.425  0.3368  0.1807  0.1068
 2991SOL     OW11735   6.191   0.699   3.877 -0.6359  0.6195  0.2483
 2991SOL    HW211736   6.140   0.619   3.869 -0.8890  0.8139 -0.1383
 2991SOL    HW311737   6.243   0.703   3.796  0.2132  0.2739  0.7688
 2991SOL    MW411738   6.191   0.689   3.865  0.3452  0.6617 -0.3161
 2992SOL     OW11739   4.966   4.527   3.008  0.3851  0.0337 -0.1781
 2992SOL    HW211740   5.044   4.516   3.062  1.2340 -0.3922 -1.4474
 2992SOL    HW311741   4.913   4.449   3.027 -1.0358  1.5184  2.6303
 2992SOL    MW411742   4.969   4.515   3.018  0.3642 -0.4949  0.8136
 2993SOL     OW11743   1.859   0.555   5.921  0.3212  1.0029  0.2204
 2993SOL    HW211744   1.798   0.609   5.972  0.7643  0.9450  0.8200
 2993SOL    HW311745   1.907   0.504   5.987 -0.3278 -0.3896 -0.3499
 2993SOL    MW411746   1.857   0.555   5.936 -0.0027  0.3112 -0.2525
 2994SOL     OW11747   4.770   1.992   5.993  0.1917 -0.0203  0.1796
 2994SOL    HW211748   4.800   1.918   5.941  0.0976 -0.3909  0.6440
 2994SOL    HW311749   4.806   2.069   5.949  1.4013 -0.4225  0.4420
 2994SOL    MW411750   4.779   1.993   5.980 -0.1147 -0.2238  0.2900
 2995SOL     OW11751   6.365   2.876   1.616  0.1280  0.2045 -0.0801
 2995SOL    HW211752   6.430   2.853   1.551  0.9714 -1.5101  1.2647
 2995SOL    HW311753   6.374   2.809   1.684 -2.1598  0.6472  0.7828
 2995SOL    MW411754   6.375   2.864   1.617 -0.1369  0.1561 -0.0706
 2996SOL     OW11755   5.448   2.836   2.478  0.0962 -0.5986  0.3925
 2996SOL    HW211756   5.433   2.902   2.546 -0.4251 -0.8403  0.5210
 2996SOL    HW311757   5.528   2.791   2.506  1.5476  1.1839 -0.6765
 2996SOL    MW411758   5.456   2.839   2.491 -0.2805 -0.2787 -0.2280
 2997SOL     OW11759   1.193   0.706   4.257  0.1334  0.0015  0.3352
 2997SOL    HW211760   1.220   0.665   4.175  0.5854 -0.1452  0.5536
 2997SOL    HW311761   1.139   0.780   4.230 -1.0980 -0.9965 -0.0637
 2997SOL    MW411762   1.190   0.710   4.243  0.5071 -0.4859 -0.4114
 2998SOL     OW11763   0.224   0.913   2.153 -0.4141 -0.1259  0.4408
 2998SOL    HW211764   0.244   0.920   2.247 -2.7197 -0.5076  1.0439
 2998SOL    HW311765   0.163   0.985   2.137  1.1392  0.8791 -1.1728
 2998SOL    MW411766   0.218   0.923   2.163  0.3028  0.2957  0.7978
 2999SOL     OW11767   6.285   5.102   6.125 -0.3905  0.4371  0.3315
 2999SOL    HW211768   6.282   5.100   6.029 -0.0048  1.3519  0.2864
 2999SOL    HW311769   6.374   5.077   6.146 -0.0816  1.5332  0.3827
 2999SOL    MW411770   6.296   5.099   6.115  0.0445  0.1411  0.5670
 3000SOL     OW11771   0.499   6.414   4.808 -0.3836 -0.4376  0.0421
 3000SOL    HW211772   0.415   6.434   4.850 -0.1926 -0.3424  0.3813
 3000SOL    HW311773   0.549   6.495   4.813 -0.3918 -0.3986 -0.4547
 3000SOL    MW411774   0.494   6.427   4.814 -0.7238 -0.1014 -0.5162
 3001SOL     OW11775   5.840   1.143   0.014 -0.6747 -0.4289 -0.3197
 3001SOL    HW211776   5.789   1.162  -0.065  0.4766 -0.9505 -1.2137
 3001SOL    HW311777   5.818   1.053   0.036 -2.4010  0.2667  1.0777
 3001SOL    MW411778   5.830   1.134   0.006  0.0068  0.1128  0.2615
 3002SOL     OW11779   1.956   3.402   5.545 -0.2208  0.2518  0.4533
 3002SOL    HW211780   1.992   3.356   5.470  0.6311 -0.3770  1.2355
 3002SOL    HW311781   1.977   3.347   5.620 -2.0431  0.2970  1.0466
 3002SOL    MW411782   1.963   3.389   5.545  0.2130  0.0546 -0.1662
 3003SOL     OW11783   4.998   5.150   5.851  0.3960 -0.4086  0.2219
 3003SOL    HW211784   5.075   5.193   5.812 -0.7058  0.1867 -1.3712
 3003SOL    HW311785   5.015   5.057   5.841  0.6475 -0.2725 -0.6612
 3003SOL    MW411786   5.011   5.144   5.845 -0.6009 -0.1889 -0.5658
 3004SOL     OW11787   2.226   4.122   4.654  0.1600  0.3615 -0.1951
 3004SOL    HW211788   2.320   4.108   4.665  0.2081  0.5761 -0.3122
 3004SOL    HW311789   2.218   4.217   4.643  0.0132  0.2656 -0.9584
 3004SOL    MW411790   2.237   4.133   4.654  0.1766  0.7605  0.4484
 3005SOL     OW11791   0.639   5.422   0.936 -0.4144  0.1744 -0.7958
 3005SOL    HW211792   0.707   5.389   0.877  2.1980 -1.4493  2.7779
 3005SOL    HW311793   0.576   5.350   0.942  0.9691 -0.9989  0.6497
 3005SOL    MW411794   0.639   5.408   0.929  0.2010 -0.5098 -0.1406
 3006SOL     OW11795   3.336   2.692   5.982 -0.0040 -0.1802 -0.2021
 3006SOL    HW211796   3.273   2.732   6.042  0.4151  0.5308 -0.2308
 3006SOL    HW311797   3.286   2.674   5.903 -0.1664  0.4107 -0.2365
 3006SOL    MW411798   3.322   2.695   5.980 -0.1960 -0.5373  0.1029
 3007SOL     OW11799   6.106   6.125   2.085  0.2606 -0.5501  0.1703
 3007SOL    HW211800   6.111   6.159   2.174 -1.7483 -1.7784  0.8198
 3007SOL    HW311801   6.027   6.165   2.049  0.2594 -1.1913 -0.5447
 3007SOL    MW411802   6.097   6.135   2.092  0.0330  0.4833 -0.0347
 3008SOL     OW11803   3.063   4.739   3.665  0.5549  0.1003  0.0221
 3008SOL    HW211804   2.982   4.697   3.696  0.0493 -0.1543 -1.5354
 3008SOL    HW311805   3.034   4.822   3.628  1.0728  0.2237 -0.1111
 3008SOL    MW411806   3.048   4.744   3.664 -0.7194 -0.6200 -0.8634
 3009SOL     OW11807   4.389   5.660   4.084 -0.4972 -0.2972 -0.2332
 3009SOL    HW211808   4.361   5.668   4.175  0.2129  0.9889 -0.1084
 3009SOL    HW311809   4.484   5.664   4.088 -0.4831  0.6404 -1.0896
 3009SOL    MW411810   4.398   5.662   4.097 -0.3262  0.7330  0.3128
 3010SOL     OW11811   0.321   2.724   6.202 -0.0466  0.1390  0.5340
 3010SOL    HW211812   0.271   2.648   6.172 -0.9540  0.4374  1.2474
 3010SOL    HW311813   0.303   2.792   6.137 -0.7613  0.3080  0.8926
 3010SOL    MW411814   0.312   2.723   6.190  0.2120 -0.1894  0.1424
 3011SOL     OW11815   0.698   0.220   4.814  0.3193 -0.8365 -0.3095
 3011SOL    HW211816   0.710   0.313   4.833 -0.9391 -0.5595 -0.7729
 3011SOL    HW311817   0.775   0.178   4.851 -0.1549  0.1227  1.9172
 3011SOL    MW411818   0.710   0.227   4.821  0.3680 -0.0849  0.5121
 3012SOL     OW11819   5.661   4.439   0.731  0.3011  0.1129 -0.0425
 3012SOL    HW211820   5.693   4.360   0.774 -2.0000 -0.7850  0.1290
 3012SOL    HW311821   5.618   4.488   0.801 -1.1614 -0.0968 -0.7632
 3012SOL    MW411822   5.660   4.435   0.746  0.2373  0.4752  0.1683
 3013SOL     OW11823   4.619   6.379   3.957  0.6505  0.0546  0.2600
 3013SOL    HW211824   4.599   6.287   3.943 -0.1290  0.3918 -1.0135
 3013SOL    HW311825   4.582   6.424   3.881  0.5038  1.4850  1.1339
 3013SOL    MW411826   4.612   6.373   3.945 -0.1537 -0.3947 -0.2480
 3014SOL     OW11827   5.873   3.548   6.349 -0.3860  0.2375 -0.4177
 3014SOL    HW211828   5.837   3.508   6.428 -1.9667  1.3683 -0.5128
 3014SOL    HW311829   5.949   3.599   6.380  1.2867 -2.2136 -0.2194
 3014SOL    MW411830   5.878   3.550   6.364 -0.9094 -0.2111 -0.2721
 3015SOL     OW11831   3.946   3.730   3.299  0.1832 -0.1069  0.0342
 3015SOL    HW211832   3.921   3.680   3.377  0.1376 -1.3294 -0.7307
 3015SOL    HW311833   4.007   3.672   3.253  0.4812  0.7450 -0.6559
 3015SOL    MW411834   3.951   3.716   3.304  0.1675 -0.1968  0.3828
 3016SOL     OW11835   1.105   4.989   4.269 -0.1325  0.7348  0.2390
 3016SOL    HW211836   1.196   5.000   4.296  0.4081  0.0312 -1.2133
 3016SOL    HW311837   1.067   5.076   4.276  0.8994  1.2173 -0.0139
 3016SOL    MW411838   1.112   5.002   4.274  0.2988  0.6046 -0.4358
 3017SOL     OW11839   5.300   3.397   6.235  0.6707 -0.0952  0.0421
 3017SOL    HW211840   5.211   3.363   6.220  0.6399  0.1644 -0.3753
 3017SOL    HW311841   5.287   3.466   6.300  0.3863  0.8049 -0.9575
 3017SOL    MW411842   5.286   3.401   6.242  0.3355 -0.1715  0.1978
 3018SOL     OW11843   1.641   4.897   4.789  0.1056 -0.1057  0.0521
 3018SOL    HW211844   1.668   4.919   4.700  0.1424  1.4334  0.4137
 3018SOL    HW311845   1.560   4.847   4.777 -1.3753  2.3327 -0.8228
 3018SOL    MW411846   1.634   4.893   4.776 -0.1348  0.3572  0.1249
 3019SOL     OW11847   2.837   3.884   3.738  0.1038  0.1400  0.5123
 3019SOL    HW211848   2.772   3.955   3.730 -1.3480 -1.1807  0.0738
 3019SOL    HW311849   2.805   3.832   3.811  0.8795 -0.3407  0.5066
 3019SOL    MW411850   2.824   3.887   3.747  0.0489  0.1494  0.4217
 3020SOL     OW11851   1.420   5.497   3.467 -0.0985  0.0368 -0.0111
 3020SOL    HW211852   1.472   5.469   3.543  0.2096 -0.3349 -0.3586
 3020SOL    HW311853   1.455   5.583   3.445  1.7362 -1.0181 -1.4633
 3020SOL    MW411854   1.432   5.505   3.474 -0.1207  0.0849  0.0002
 3021SOL     OW11855   1.650   5.763   2.044 -0.1201  0.3405 -0.6106
 3021SOL    HW211856   1.695   5.831   2.096 -0.9059  2.2470 -2.2893
 3021SOL    HW311857   1.684   5.775   1.956 -0.9739 -0.8863 -1.1246
 3021SOL    MW411858   1.661   5.774   2.039 -0.2754 -0.5817 -0.2178
 3022SOL     OW11859   6.208   2.220   1.715 -0.1222 -0.2257  0.4545
 3022SOL    HW211860   6.123   2.178   1.705 -0.9845  1.3219  0.8963
 3022SOL    HW311861   6.268   2.166   1.664 -1.5029 -0.9454 -0.4569
 3022SOL    MW411862   6.204   2.207   1.707 -0.3173  0.0453  0.0974
 3023SOL     OW11863   1.430   0.221   0.629 -0.1998  0.3450 -0.3638
 3023SOL    HW211864   1.496   0.228   0.698 -0.1639  1.7528 -0.5179
 3023SOL    HW311865   1.475   0.177   0.558  0.1386  0.0110  0.0495
 3023SOL    MW411866   1.444   0.216   0.629  0.0921 -0.0264 -0.2165
 3024SOL     OW11867   1.344   1.747   4.166  0.7444 -0.1465  0.2400
 3024SOL    HW211868   1.321   1.791   4.248  2.7479 -0.4516  1.0283
 3024SOL    HW311869   1.340   1.817   4.100 -1.6968 -0.0711  0.3929
 3024SOL    MW411870   1.341   1.762   4.168 -0.3362 -0.1736  0.4966
 3025SOL     OW11871   2.830   5.073   3.208  0.2569  0.0774  0.2897
 3025SOL    HW211872   2.753   5.071   3.265 -0.3734 -0.0012 -0.5430
 3025SOL    HW311873   2.861   4.982   3.207 -1.1450 -0.4495 -1.3218
 3025SOL    MW411874   2.824   5.061   3.215 -0.1887 -0.0326  0.3343
 3026SOL     OW11875   5.543   0.945   2.993  0.0036 -0.2390  0.1322
 3026SOL    HW211876   5.611   1.006   2.962  0.3412 -0.1977  0.9352
 3026SOL    HW311877   5.475   0.949   2.925  0.8402 -0.3573 -0.7398
 3026SOL    MW411878   5.543   0.954   2.980 -0.1157  0.1060 -0.3088
 3027SOL     OW11879   1.282   5.123   2.728  0.5425  0.3642  0.3175
 3027SOL    HW211880   1.262   5.031   2.748  0.0429  0.6584  1.2787
 3027SOL    HW311881   1.196   5.164   2.719  0.7690  0.5953 -0.8490
 3027SOL    MW411882   1.268   5.116   2.730  0.6162  0.2097  0.5634
 3028SOL     OW11883   4.147   1.631   3.236  0.4929  0.2946  0.2687
 3028SOL    HW211884   4.125   1.550   3.191  0.4053  1.0137 -1.0372
 3028SOL    HW311885   4.176   1.603   3.323 -0.1861 -1.0697  0.0829
 3028SOL    MW411886   4.148   1.617   3.241  0.2830 -0.1398 -0.7222
 3029SOL     OW11887   5.376   5.105   4.876  0.1383 -0.1148 -0.2439
 3029SOL    HW211888   5.429   5.148   4.810  1.0024  0.5655  0.8484
 3029SOL    HW311889   5.326   5.040   4.828 -1.1320  1.9886 -1.9692
 3029SOL    MW411890   5.376   5.102   4.861  0.3065  0.3384 -0.0811
 3030SOL     OW11891   5.305   3.797   4.488 -0.0463 -0.2453  0.4125
 3030SOL    HW211892   5.365   3.789   4.414 -0.3268 -0.7927  0.2474
 3030SOL    HW311893   5.349   3.860   4.546  0.9539 -1.0462  0.5528
 3030SOL    MW411894   5.319   3.804   4.486  0.5487  0.2262 -0.1064
 3031SOL     OW11895   4.591   5.264   0.254 -0.2089 -0.0439 -0.2274
 3031SOL    HW211896   4.671   5.283   0.304 -0.2535  0.0614 -0.1967
 3031SOL    HW311897   4.617   5.278   0.163 -0.1187 -0.2661 -0.2389
 3031SOL    MW411898   4.605   5.268   0.248  0.0493 -0.4915 -0.0847
 3032SOL     OW11899   1.330   5.374   2.140 -0.2715 -0.3836 -0.2025
 3032SOL    HW211900   1.249   5.413   2.107 -0.7328  0.6387  1.9522
 3032SOL    HW311901   1.384   5.361   2.061 -2.0812 -0.0816 -1.5616
 3032SOL    MW411902   1.327   5.378   2.125 -0.0718 -0.0857  0.0170
 3033SOL     OW11903   6.234   5.702   4.880 -0.1471  0.0995  0.0802
 3033SOL    HW211904   6.239   5.692   4.785  0.6534 -2.9450  0.3438
 3033SOL    HW311905   6.308   5.758   4.902  0.9750 -0.8966 -0.9660
 3033SOL    MW411906   6.245   5.708   4.870 -0.0628  0.1197 -0.0327
 3034SOL     OW11907   1.327   4.993   4.864 -0.5409  0.1728 -1.1642
 3034SOL    HW211908   1.342   5.038   4.947 -0.8605 -0.2456 -0.8770
 3034SOL    HW311909   1.329   4.900   4.886  1.9048 -0.0447 -2.0498
 3034SOL    MW411910   1.329   4.987   4.878  0.3003  0.0531 -0.1298
 3035SOL     OW11911   1.585   6.232   5.133 -0.2548 -0.6657  0.4980
 3035SOL    HW211912   1.531   6.300   5.172 -0.2775 -0.4115  0.0214
 3035SOL    HW311913   1.666   6.233   5.184 -0.1617 -0.1241  0.3390
 3035SOL    MW411914   1.588   6.241   5.145  0.2274  0.0077  0.1348
 3036SOL     OW11915   1.630   3.133   4.558 -0.0765  0.0721 -0.1981
 3036SOL    HW211916   1.669   3.054   4.595 -0.7469  0.3840  1.2469
 3036SOL    HW311917   1.545   3.104   4.523  0.1816 -0.0539 -0.7369
 3036SOL    MW411918   1.624   3.119   4.558  0.2545  0.3789  0.0562
 3037SOL     OW11919   5.025   6.201   0.237  0.3057 -0.2084  0.1866
 3037SOL    HW211920   4.968   6.271   0.206 -0.3931 -0.5614  0.6236
 3037SOL    HW311921   4.992   6.122   0.193  0.2868 -0.4560  0.6330
 3037SOL    MW411922   5.013   6.199   0.227  0.2485  0.1213  0.7837
 3038SOL     OW11923   6.119   1.685   5.792  0.5883  0.0737 -0.0387
 3038SOL    HW211924   6.098   1.709   5.882  1.2647  0.0005  0.1454
 3038SOL    HW311925   6.067   1.607   5.775  0.9731 -0.3129  0.5297
 3038SOL    MW411926   6.110   1.678   5.801 -0.5634 -0.4687 -0.3954
 3039SOL     OW11927   2.958   2.797   3.224  0.5211 -0.2903  0.3761
 3039SOL    HW211928   2.932   2.861   3.291  2.5011 -0.3168  1.2183
 3039SOL    HW311929   2.917   2.715   3.252  0.0684  0.0415  0.7020
 3039SOL    MW411930   2.949   2.795   3.237 -0.5719 -0.2635  0.2657
 3040SOL     OW11931   3.396   5.568   3.829 -0.2542  0.2367  0.0339
 3040SOL    HW211932   3.403   5.541   3.920 -0.8140  1.6130  0.5186
 3040SOL    HW311933   3.480   5.544   3.790 -0.8849 -2.5862  0.2300
 3040SOL    MW411934   3.408   5.561   3.836 -0.1079  0.2556 -0.1664
 3041SOL     OW11935   4.573   3.946   2.488 -0.1921  0.1270  0.3540
 3041SOL    HW211936   4.503   3.880   2.483  0.7968 -1.1189  1.7484
 3041SOL    HW311937   4.636   3.908   2.549  1.1082  1.7772  0.0994
 3041SOL    MW411938   4.572   3.932   2.496 -0.3416  0.4135  0.6434
 3042SOL     OW11939   2.297   0.743   3.497  0.1402  0.1250 -0.1188
 3042SOL    HW211940   2.323   0.701   3.578 -1.7254 -0.3154  0.2989
 3042SOL    HW311941   2.279   0.834   3.521  1.8672  0.6079 -0.5439
 3042SOL    MW411942   2.298   0.750   3.511  0.6100  0.3755  0.0218
 3043SOL     OW11943   1.597   0.487   1.061  0.5044  0.5429  0.0210
 3043SOL    HW211944   1.540   0.420   1.101 -1.2154  1.0885 -1.3836
 3043SOL    HW311945   1.677   0.484   1.113  0.2720 -2.2041  0.3899
 3043SOL    MW411946   1.600   0.478   1.073  0.5741 -0.1033 -0.1370
 3044SOL     OW11947   4.051   0.647   4.542 -0.0105 -0.0160 -0.1565
 3044SOL    HW211948   4.001   0.728   4.540 -1.0886 -0.6764 -0.8956
 3044SOL    HW311949   4.121   0.663   4.605 -1.5763  0.6837  1.4658
 3044SOL    MW411950   4.054   0.660   4.550 -0.6681 -0.0790  0.7512
 3045SOL     OW11951   0.331   0.857   0.956 -0.1309 -0.1698  0.6532
 3045SOL    HW211952   0.259   0.837   0.896  0.1895  0.7725 -0.0762
 3045SOL    HW311953   0.355   0.947   0.935  0.8637 -0.2655  1.3020
 3045SOL    MW411954   0.325   0.866   0.945 -0.2800 -0.1046 -0.1117
 3046SOL     OW11955   0.727   2.078   1.622  0.3163 -0.2922 -0.1392
 3046SOL    HW211956   0.638   2.046   1.635  0.3049 -0.1015  0.2761
 3046SOL    HW311957   0.769   2.066   1.708  0.3273  0.7407  0.0068
 3046SOL    MW411958   0.721   2.072   1.635  0.3036  0.2546 -0.5048
 3047SOL     OW11959   0.922   2.699   5.169  0.5061  0.4047 -0.0763
 3047SOL    HW211960   0.861   2.707   5.242  0.7786 -0.6211  0.2851
 3047SOL    HW311961   1.008   2.704   5.209  0.6556  0.0102 -0.3456
 3047SOL    MW411962   0.925   2.700   5.184 -0.1218  0.1364 -0.2564
 3048SOL     OW11963   6.374   5.975   4.201  0.7457 -0.2523  0.4312
 3048SOL    HW211964   6.433   5.919   4.149  0.5447  0.0756 -0.1600
 3048SOL    HW311965   6.393   5.952   4.291  1.0644 -0.8805  0.2118
 3048SOL    MW411966   6.384   5.964   4.206 -0.9493 -0.0169  0.1761
 3049SOL     OW11967   4.495   3.433   3.740  0.3558 -1.1102 -0.5182
 3049SOL    HW211968   4.405   3.466   3.740 -0.3487 -2.8994 -0.4029
 3049SOL    HW311969   4.536   3.475   3.664 -0.8933 -1.0140 -1.1776
 3049SOL    MW411970   4.489   3.443   3.730 -0.7943  0.5504 -0.0157
 3050SOL     OW11971   5.166   3.098   2.583 -0.7043  1.2506 -0.1033
 3050SOL    HW211972   5.152   3.092   2.488  1.2141 -0.8381 -0.3627
 3050SOL    HW311973   5.186   3.008   2.609 -1.2475  1.7782  2.3175
 3050SOL    MW411974   5.167   3.085   2.574  0.1200  0.0551 -0.4544
 3051SOL     OW11975   2.330   1.001   0.907 -0.2051 -0.2835 -0.3657
 3051SOL    HW211976   2.397   0.944   0.943  0.9512 -0.4407 -2.5512
 3051SOL    HW311977   2.283   1.035   0.983  0.2647 -2.6694  1.0809
 3051SOL    MW411978   2.333   0.998   0.921 -0.9073  0.3641 -0.0482
 3052SOL     OW11979   3.143   5.348   6.286  0.2094 -0.1959 -0.4946
 3052SOL    HW211980   3.174   5.433   6.318  1.1412 -0.6287 -0.1997
 3052SOL    HW311981   3.158   5.288   6.359 -1.4200 -0.4355 -0.3151
 3052SOL    MW411982   3.149   5.351   6.300  0.2664 -0.0402  0.5530
 3053SOL     OW11983   0.446   2.001   6.116 -0.2017 -0.0036  0.1499
 3053SOL    HW211984   0.385   2.042   6.055 -0.4564  0.4118  0.6650
 3053SOL    HW311985   0.452   1.910   6.089 -0.6572  0.0759 -0.2148
 3053SOL    MW411986   0.439   1.995   6.105  0.7920  0.1445 -0.2067
 3054SOL     OW11987   5.239   1.974   0.706  0.1350 -0.3067  0.2882
 3054SOL    HW211988   5.146   1.953   0.710  0.1457 -0.1654  1.9716
 3054SOL    HW311989   5.243   2.058   0.661 -0.6343  0.0881  0.9332
 3054SOL    MW411990   5.227   1.982   0.700 -0.0210  0.5450  0.7844
 3055SOL     OW11991   6.310   3.884   0.038  0.2772  0.4382  0.6256
 3055SOL    HW211992   6.230   3.852  -0.004  0.1965 -0.4109  1.4062
 3055SOL    HW311993   6.282   3.910   0.125  0.3454  2.6788  0.0379
 3055SOL    MW411994   6.296   3.883   0.044 -0.5520  0.2597 -0.3532
 3056SOL     OW11995   4.796   3.602   0.386 -0.1256 -0.3553  0.4094
 3056SOL    HW211996   4.808   3.665   0.315 -0.7502 -1.8288 -1.0670
 3056SOL    HW311997   4.880   3.556   0.391  0.0572  0.0262  0.9276
 3056SOL    MW411998   4.809   3.605   0.377 -0.7825  0.2965 -0.7551
 3057SOL     OW11999   0.172   2.521   2.187  0.2262 -0.1033 -0.2078
 3057SOL    HW212000   0.098   2.460   2.183  1.0713 -1.0946 -1.6443
 3057SOL    HW312001   0.241   2.471   2.231  0.3373  0.5060  0.3247
 3057SOL    MW412002   0.171   2.506   2.193 -0.0589 -0.5510  0.2327
 3058SOL     OW12003   4.535   3.348   0.672  0.2917 -0.2734 -0.0858
 3058SOL    HW212004   4.444   3.318   0.679  0.6224 -1.4297 -0.4986
 3058SOL    HW312005   4.587   3.270   0.690  1.2982  0.9657  3.1356
 3058SOL    MW412006   4.530   3.334   0.675 -0.5016  0.8681  0.2571
 3059SOL     OW12007   6.388   0.080   2.444 -0.1494  0.5833  0.1527
 3059SOL    HW212008   6.424   0.168   2.457 -0.5136  1.0712 -1.8942
 3059SOL    HW312009   6.460   0.021   2.468  1.1422  1.5055 -1.2503
 3059SOL    MW412010   6.402   0.084   2.449 -0.0187 -0.2180 -0.0665
 3060SOL     OW12011   1.600   0.765   3.531 -0.3757 -0.1600 -0.0321
 3060SOL    HW212012   1.595   0.759   3.627 -1.8061 -0.6250 -0.1140
 3060SOL    HW312013   1.648   0.686   3.505  0.3001  0.1275  0.3092
 3060SOL    MW412014   1.606   0.754   3.541 -0.2775 -0.1197  0.1034
 3061SOL     OW12015   1.325   3.318   4.558  0.3612 -0.5683 -0.2391
 3061SOL    HW212016   1.231   3.304   4.543  0.1146  1.8114 -1.3092
 3061SOL    HW312017   1.334   3.413   4.569  2.7302 -0.6702 -0.8002
 3061SOL    MW412018   1.313   3.329   4.558 -0.1459  0.1189 -0.1415
 3062SOL     OW12019   6.005   0.397   2.035 -0.3673  0.5154 -0.1988
 3062SOL    HW212020   6.079   0.365   2.087 -0.5723  0.9294  0.3510
 3062SOL    HW312021   5.981   0.322   1.981 -0.6854 -0.2046  0.9047
 3062SOL    MW412022   6.012   0.383   2.035 -0.0951  0.0989 -0.3285
 3063SOL     OW12023   4.353   6.283   3.666  0.5704  0.5469 -0.7065
 3063SOL    HW212024   4.445   6.260   3.650  0.0794 -3.1006  0.9342
 3063SOL    HW312025   4.310   6.267   3.582  1.0512 -0.0767 -0.8441
 3063SOL    MW412026   4.359   6.278   3.653  0.6322  0.3003 -0.1787
 3064SOL     OW12027   5.304   1.121   2.191  0.1561  0.2434 -1.0711
 3064SOL    HW212028   5.292   1.182   2.118 -0.6359  1.3974 -0.0169
 3064SOL    HW312029   5.305   1.176   2.269 -0.2410 -1.0626 -0.0951
 3064SOL    MW412030   5.302   1.136   2.192  0.0141  0.2579 -0.0890
 3065SOL     OW12031   0.999   6.130   1.834 -0.2517  0.1285 -0.7159
 3065SOL    HW212032   0.986   6.048   1.881  0.5554 -0.3845 -1.3462
 3065SOL    HW312033   1.022   6.193   1.901  1.7039 -0.7775 -0.4632
 3065SOL    MW412034   1.000   6.127   1.849 -0.3193  0.0464 -0.8709
 3066SOL     OW12035   5.348   5.772   0.489 -0.1687  0.1776  0.2562
 3066SOL    HW212036   5.347   5.868   0.495 -1.7572  0.2517 -0.6355
 3066SOL    HW312037   5.401   5.754   0.412  0.6206  0.3003  0.7617
 3066SOL    MW412038   5.355   5.782   0.480 -0.6120  0.2364  0.0423
 3067SOL     OW12039   0.030   0.977   1.787  0.2690 -0.1709 -0.1414
 3067SOL    HW212040  -0.062   0.971   1.813 -0.2301  0.2647 -1.6996
 3067SOL    HW312041   0.074   0.910   1.839 -1.2269 -1.6017 -0.6384
 3067SOL    MW412042   0.023   0.968   1.797 -0.1090  0.2249  0.3231
 3068SOL     OW12043   5.575   1.479   0.537  0.2164  0.3239 -0.0254
 3068SOL    HW212044   5.515   1.424   0.486  0.8321 -0.4694  0.0964
 3068SOL    HW312045   5.625   1.418   0.590  1.8283  0.8758 -0.8271
 3068SOL    MW412046   5.574   1.464   0.537 -0.3182  0.5473  0.2915
 3069SOL     OW12047   1.735   1.249   3.486  0.2724 -0.3932 -0.5447
 3069SOL    HW212048   1.703   1.205   3.565 -2.6623  1.0095 -0.8475
 3069SOL    HW312049   1.685   1.210   3.415  1.7045 -0.4734 -1.5544
 3069SOL    MW412050   1.724   1.238   3.487 -0.5925 -0.1299  0.2369
 3070SOL     OW12051   1.510   5.743   5.576 -0.4519  0.1322  0.1094
 3070SOL    HW212052   1.605   5.746   5.590  0.1722  0.2850 -3.3544
 3070SOL    HW312053   1.482   5.835   5.579 -0.5709  0.0690  1.3725
 3070SOL    MW412054   1.519   5.756   5.578  0.4479  0.3387  0.6433
 3071SOL     OW12055   2.840   1.502   2.030 -0.0045 -0.2279 -0.0765
 3071SOL    HW212056   2.748   1.481   2.015  0.2720 -0.6993 -1.2569
 3071SOL    HW312057   2.859   1.575   1.971 -0.2796  1.7374  2.1219
 3071SOL    MW412058   2.831   1.509   2.020  0.0600  0.5699  0.4324
 3072SOL     OW12059   4.037   4.218   3.781  0.2005  0.0686  0.2450
 3072SOL    HW212060   4.003   4.214   3.870  0.0176  0.2324  0.1836
 3072SOL    HW312061   3.967   4.260   3.730 -0.1853 -1.0764 -0.2079
 3072SOL    MW412062   4.023   4.223   3.786 -0.2085  0.4625 -0.0749
 3073SOL     OW12063   0.152   0.564   5.880  0.6699 -0.2340  0.1471
 3073SOL    HW212064   0.149   0.646   5.831 -3.5359  0.2152  0.8402
 3073SOL    HW312065   0.110   0.584   5.963 -1.0048 -3.1554  0.1375
 3073SOL    MW412066   0.146   0.578   5.884 -0.7981 -0.0777 -0.4857
 3074SOL     OW12067   2.247   4.713   4.058 -0.3462 -0.5365 -0.4759
 3074SOL    HW212068   2.270   4.805   4.062  0.9606 -0.7392 -2.1000
 3074SOL    HW312069   2.220   4.690   4.148 -0.2167  1.2724  0.0506
 3074SOL    MW412070   2.246   4.722   4.071  0.2776 -0.2706 -0.3627
 3075SOL     OW12071   4.579   1.492   0.293  0.3222  0.5749 -0.3513
 3075SOL    HW212072   4.547   1.499   0.204  1.1025 -0.6257 -0.7504
 3075SOL    HW312073   4.503   1.465   0.345  0.2317 -0.3764 -0.9551
 3075SOL    MW412074   4.565   1.489   0.288  0.3249 -0.4130  0.0032
 3076SOL     OW12075   3.454   5.561   5.737  0.0650 -0.5403  0.9747
 3076SOL    HW212076   3.492   5.646   5.715  0.1380 -1.0057 -0.9488
 3076SOL    HW312077   3.360   5.576   5.733  0.0690 -0.6613 -0.0597
 3076SOL    MW412078   3.447   5.574   5.733 -0.0636 -0.0530 -0.3542
 3077SOL     OW12079   0.608   0.944   6.126  0.1926  0.2366 -0.1387
 3077SOL    HW212080   0.605   0.995   6.045 -3.0905  1.2452  0.4756
 3077SOL    HW312081   0.535   0.883   6.119  0.6060 -0.4964  1.5413
 3077SOL    MW412082   0.598   0.943   6.114 -0.0384  0.2177 -0.5135
 3078SOL     OW12083   2.079   4.310   0.867  0.4400 -0.2121 -0.2634
 3078SOL    HW212084   2.008   4.365   0.836  0.4569 -0.6172 -1.0459
 3078SOL    HW312085   2.157   4.343   0.820  0.7822  0.2342  0.5882
 3078SOL    MW412086   2.080   4.322   0.857  0.3639  0.5136  0.2755
 3079SOL     OW12087   1.916   1.184   1.514 -0.0809  0.0799 -0.1794
 3079SOL    HW212088   1.889   1.182   1.606  0.8283  0.6287  0.1116
 3079SOL    HW312089   1.995   1.239   1.513 -0.6391  0.8959 -1.4420
 3079SOL    MW412090   1.923   1.191   1.526 -0.1429 -0.2799  0.3155
 3080SOL     OW12091   5.349   6.011   2.709  0.1025 -0.2147  0.0893
 3080SOL    HW212092   5.301   5.953   2.651 -1.3986  0.8884  0.1688
 3080SOL    HW312093   5.339   5.972   2.796 -0.1677 -0.2910  0.0227
 3080SOL    MW412094   5.342   5.999   2.713 -0.0732  0.2962  0.0178
 3081SOL     OW12095   3.031   2.508   0.367 -0.3464 -0.5910 -0.0744
 3081SOL    HW212096   3.016   2.453   0.444  0.4148  1.3641  1.5534
 3081SOL    HW312097   2.981   2.466   0.298  0.2899 -3.3694  1.0266
 3081SOL    MW412098   3.022   2.495   0.368 -0.2949 -0.2354  0.2456
 3082SOL     OW12099   4.409   0.323   0.406 -0.3826  0.6037  0.4350
 3082SOL    HW212100   4.400   0.228   0.399 -0.4157  0.6116  0.3741
 3082SOL    HW312101   4.430   0.353   0.317 -0.7116  0.6917  0.3870
 3082SOL    MW412102   4.411   0.315   0.393  0.1067  0.4062 -0.0858
 3083SOL     OW12103   1.481   5.480   4.975  0.4806 -0.5936 -0.3945
 3083SOL    HW212104   1.393   5.504   5.006  0.9194  0.3772  0.1350
 3083SOL    HW312105   1.480   5.504   4.882  0.7118  1.0186 -0.0154
 3083SOL    MW412106   1.469   5.487   4.966  0.3053  0.5474  0.6137
 3084SOL     OW12107   4.509   0.630   1.606 -0.3191  0.6164  0.4347
 3084SOL    HW212108   4.508   0.544   1.647  0.9253  1.1657  1.7148
 3084SOL    HW312109   4.485   0.614   1.515  2.2578 -1.4599  0.0077
 3084SOL    MW412110   4.506   0.617   1.600 -0.1993 -0.5492  0.3358
 3085SOL     OW12111   2.807   5.115   0.773 -0.0524 -0.6568 -0.3981
 3085SOL    HW212112   2.755   5.117   0.853  1.5590 -2.0678  0.7765
 3085SOL    HW312113   2.746   5.088   0.705 -1.7366  1.7278  0.0469
 3085SOL    MW412114   2.792   5.111   0.775  0.1556 -0.1089 -0.7537
 3086SOL     OW12115   2.104   0.338   4.491 -0.1796  0.1642  0.1788
 3086SOL    HW212116   2.139   0.249   4.483 -2.1638 -0.7347  0.8880
 3086SOL    HW312117   2.063   0.356   4.406 -0.0227  0.2922  0.1300
 3086SOL    MW412118   2.103   0.328   4.479  0.6241  0.3201  0.4323
 3087SOL     OW12119   3.870   3.690   4.046 -0.0530 -0.5036  0.7638
 3087SOL    HW212120   3.916   3.773   4.031 -0.0541 -0.7219 -0.6434
 3087SOL    HW312121   3.786   3.716   4.083 -0.5613  0.2548 -0.8197
 3087SOL    MW412122   3.865   3.704   4.049 -0.4892  0.6936  0.1148
 3088SOL     OW12123   4.495   6.211   0.639 -0.4644  0.1788 -0.0088
 3088SOL    HW212124   4.584   6.210   0.603  0.0756 -0.0145  1.2640
 3088SOL    HW312125   4.451   6.282   0.593 -0.0247 -0.4700 -1.4986
 3088SOL    MW412126   4.501   6.220   0.628 -0.7426  0.0630 -0.3375
 3089SOL     OW12127   0.725   0.246   0.964 -0.1142 -0.3493 -0.4974
 3089SOL    HW212128   0.709   0.154   0.940  0.4343 -0.7504  0.5738
 3089SOL    HW312129   0.820   0.255   0.959 -0.2425  0.5913 -1.9804
 3089SOL    MW412130   0.736   0.235   0.960  0.2183  0.2995  0.1420
 3090SOL     OW12131   0.971   6.416   5.354  0.1617 -0.0588  0.1833
 3090SOL    HW212132   0.909   6.363   5.303  0.5866 -2.2197  1.7804
 3090SOL    HW312133   1.057   6.394   5.317  0.3108 -0.1859  0.6099
 3090SOL    MW412134   0.974   6.406   5.342  0.5203 -0.2763 -0.1734
 3091SOL     OW12135   0.020   2.807   6.174  0.0095  0.6552 -0.1471
 3091SOL    HW212136   0.058   2.755   6.245 -0.2835  1.4183  0.5900
 3091SOL    HW312137   0.038   2.757   6.095  0.7510  0.0136  0.4157
 3091SOL    MW412138   0.027   2.794   6.173  0.0717  1.1206 -0.3993
 3092SOL     OW12139   5.076   2.830   3.053 -0.1186 -0.0987  0.1972
 3092SOL    HW212140   5.142   2.765   3.077  0.0192  0.0858  0.3137
 3092SOL    HW312141   5.012   2.826   3.124 -1.3971 -1.8518 -0.9734
 3092SOL    MW412142   5.076   2.821   3.065 -0.9631 -0.8221 -0.2358
 3093SOL     OW12143   0.933   0.314   1.958  0.4041  0.1234 -0.1868
 3093SOL    HW212144   0.986   0.356   1.890  2.3876 -1.7968  0.0618
 3093SOL    HW312145   0.923   0.223   1.928  1.3078 -0.7749  1.9897
 3093SOL    MW412146   0.939   0.307   1.945 -0.0428 -0.3618 -0.0524
 3094SOL     OW12147   5.404   2.924   2.881 -0.0423 -0.3618 -0.0788
 3094SOL    HW212148   5.442   2.982   2.815 -0.3732 -0.1093 -0.0494
 3094SOL    HW312149   5.423   2.967   2.965  0.1850 -0.5720 -0.0185
 3094SOL    MW412150   5.412   2.938   2.884 -0.2832 -0.3471  0.0412
 3095SOL     OW12151   3.384   3.900   4.298 -0.1341 -0.3634  0.3012
 3095SOL    HW212152   3.436   3.921   4.376  0.1740 -0.7685  0.2052
 3095SOL    HW312153   3.378   3.805   4.298 -1.1386 -0.3090  0.4756
 3095SOL    MW412154   3.390   3.890   4.308 -0.7990 -0.3290 -0.0900
 3096SOL     OW12155   0.107   2.621   6.360  0.1047 -0.2660 -0.1867
 3096SOL    HW212156   0.039   2.605   6.425  0.0405 -0.1314 -0.2181
 3096SOL    HW312157   0.175   2.557   6.379 -0.1100 -0.5207 -0.2661
 3096SOL    MW412158   0.107   2.611   6.371  0.6311  0.2198 -0.1818
 3097SOL     OW12159   4.475   3.094   0.968 -0.1661  0.2220 -0.4027
 3097SOL    HW212160   4.553   3.089   1.022  0.1992 -1.6329 -1.0362
 3097SOL    HW312161   4.508   3.108   0.879 -0.3177 -2.8686 -1.0527
 3097SOL    MW412162   4.490   3.096   0.963 -0.4179 -0.1126 -0.8241
 3098SOL     OW12163   4.645   2.055   4.614  0.3626 -0.3120  0.2290
 3098SOL    HW212164   4.635   2.127   4.552  0.6643 -0.6291 -0.1888
 3098SOL    HW312165   4.560   2.011   4.613  0.1182  0.1368  0.6177
 3098SOL    MW412166   4.633   2.059   4.606  0.4993 -0.0685  0.5345
 3099SOL     OW12167   5.646   5.119   1.471  0.4851 -0.2092 -0.5527
 3099SOL    HW212168   5.625   5.213   1.472 -2.8049 -0.8260  0.6207
 3099SOL    HW312169   5.680   5.104   1.383  0.0913  1.9153 -1.1334
 3099SOL    MW412170   5.648   5.130   1.459  0.5193  0.0069 -0.3521
 3100SOL     OW12171   2.833   1.921   4.593  0.2533  0.4062 -0.1506
 3100SOL    HW212172   2.904   1.856   4.595 -0.0082  0.0688 -1.2612
 3100SOL    HW312173   2.817   1.941   4.685  1.8663  0.5742  0.1364
 3100SOL    MW412174   2.840   1.915   4.606  0.2578  0.4306  0.0157
 3101SOL     OW12175   1.699   3.120   5.388 -0.0397 -0.0705  0.2008
 3101SOL    HW212176   1.627   3.148   5.444 -1.3588  1.4518 -2.1044
 3101SOL    HW312177   1.661   3.114   5.301  2.4480 -0.0034 -0.9807
 3101SOL    MW412178   1.684   3.123   5.384 -0.2035  0.4887  0.5707
 3102SOL     OW12179   0.542   5.379   2.390  0.3184  0.2296  0.0794
 3102SOL    HW212180   0.555   5.339   2.476  0.7664  0.3070  0.0501
 3102SOL    HW312181   0.541   5.474   2.407 -0.3863  0.2197  0.1030
 3102SOL    MW412182   0.544   5.387   2.403  0.3009 -0.3166  0.5000
 3103SOL     OW12183   0.650   5.866   2.537  0.3991  0.2017 -0.0865
 3103SOL    HW212184   0.737   5.851   2.575  0.7961  1.0615 -0.6162
 3103SOL    HW312185   0.639   5.793   2.475 -0.4192 -1.4225  1.8599
 3103SOL    MW412186   0.660   5.854   2.534 -0.1303  0.3942  1.1144
 3104SOL     OW12187   1.627   2.564   3.248 -0.0129 -0.4581  0.1527
 3104SOL    HW212188   1.691   2.585   3.315  0.8188 -2.6305  0.1001
 3104SOL    HW312189   1.566   2.503   3.290 -0.2629 -0.7944 -0.6612
 3104SOL    MW412190   1.627   2.559   3.262  0.1915 -0.5137 -0.1934
 3105SOL     OW12191   5.378   2.942   4.741 -0.1220  0.5410 -0.0337
 3105SOL    HW212192   5.423   2.876   4.687  1.6116  0.8521  0.9602
 3105SOL    HW312193   5.287   2.939   4.711  0.5660  0.0273 -2.2976
 3105SOL    MW412194   5.372   2.933   4.730  0.2855  0.0848 -0.4215
 3106SOL     OW12195   2.985   0.463   3.236  0.3850 -0.4167 -0.3886
 3106SOL    HW212196   2.927   0.398   3.276  0.1238 -0.0396 -0.1530
 3106SOL    HW312197   2.929   0.514   3.178  0.7870 -1.0550 -1.3841
 3106SOL    MW412198   2.970   0.461   3.233 -0.1771 -0.2972 -0.6395
 3107SOL     OW12199   1.997   1.222   4.998 -0.4031  0.0054 -0.8750
 3107SOL    HW212200   1.993   1.228   4.903  1.3209 -0.4174 -1.0032
 3107SOL    HW312201   2.062   1.287   5.024 -0.3797 -0.3289 -0.0565
 3107SOL    MW412202   2.005   1.231   4.989  0.6459  0.1127  0.1274
 3108SOL     OW12203   1.231   0.076   0.353  0.1710  0.2150 -0.4711
 3108SOL    HW212204   1.252   0.169   0.355  0.1641  0.2115 -0.1962
 3108SOL    HW312205   1.279   0.042   0.278 -0.6329  0.6332 -1.1933
 3108SOL    MW412206   1.240   0.084   0.343  0.3075  0.2477 -0.6714
 3109SOL     OW12207   4.509   1.962   5.109 -0.1275  0.0071  0.5302
 3109SOL    HW212208   4.432   1.940   5.160 -1.3286  3.6709  0.5569
 3109SOL    HW312209   4.569   2.004   5.171  0.1296  0.8487 -0.2604
 3109SOL    MW412210   4.507   1.965   5.124  0.3614 -0.1132  0.1652
 3110SOL     OW12211   0.190   4.860   5.962  0.3289 -0.1554 -0.1193
 3110SOL    HW212212   0.176   4.767   5.981  0.3289  0.0596  0.9772
 3110SOL    HW312213   0.163   4.870   5.871 -0.1961 -1.1242 -0.0842
 3110SOL    MW412214   0.184   4.849   5.952  0.0847  0.4889 -0.7036
 3111SOL     OW12215   2.563   3.978   1.644  0.0976  0.0465 -0.3934
 3111SOL    HW212216   2.657   3.961   1.649  0.2200  0.9854  0.7927
 3111SOL    HW312217   2.556   4.072   1.628 -0.6489 -0.1617 -1.4330
 3111SOL    MW412218   2.574   3.988   1.642  0.3572 -0.2101  0.6996
 3112SOL     OW12219   1.489   0.484   2.800 -0.5170 -0.2173 -0.6190
 3112SOL    HW212220   1.473   0.455   2.890 -1.1514  0.1023 -0.6262
 3112SOL    HW312221   1.578   0.454   2.781 -1.5923 -3.4531 -1.1348
 3112SOL    MW412222   1.499   0.476   2.810  0.1797 -0.5745 -0.2867
 3113SOL     OW12223   0.700   5.915   5.506 -0.1885  0.1863 -0.3586
 3113SOL    HW212224   0.751   5.984   5.549  0.6029  0.4208 -1.6491
 3113SOL    HW312225   0.632   5.962   5.457  0.5283  0.0844 -1.4733
 3113SOL    MW412226   0.697   5.930   5.505 -0.3413 -0.3678 -0.0861
 3114SOL     OW12227   2.203   5.784   2.452 -0.1871  0.2655 -0.3231
 3114SOL    HW212228   2.134   5.847   2.476  0.4404  0.0438  2.3748
 3114SOL    HW312229   2.274   5.838   2.418 -0.2743  0.8873  0.4489
 3114SOL    MW412230   2.203   5.799   2.451  0.2491  0.1602 -0.4938
 3115SOL     OW12231   0.547   1.634   6.291 -0.1686  0.1134  0.6138
 3115SOL    HW212232   0.554   1.539   6.279  0.4890  0.2378 -0.1027
 3115SOL    HW312233   0.482   1.645   6.360 -1.1462 -0.8277 -0.1260
 3115SOL    MW412234   0.540   1.623   6.298 -0.5438  0.1932  0.3567
 3116SOL     OW12235   2.254   5.662   2.712  0.0865 -0.2232  0.3354
 3116SOL    HW212236   2.168   5.693   2.741 -0.0157 -0.9923  0.8831
 3116SOL    HW312237   2.258   5.686   2.619 -1.4470 -1.7239 -0.1602
 3116SOL    MW412238   2.243   5.670   2.703 -0.3809  0.1987 -0.5236
 3117SOL     OW12239   2.200   2.245   5.930 -0.2589 -0.1086 -0.0944
 3117SOL    HW212240   2.187   2.223   6.022 -0.4508  0.6800  0.0700
 3117SOL    HW312241   2.161   2.332   5.920 -1.8596 -0.9154 -1.3234
 3117SOL    MW412242   2.193   2.253   5.941 -0.2613 -0.3443 -0.2923
 3118SOL     OW12243   6.151   0.054   2.019 -0.1124 -0.6069 -0.0853
 3118SOL    HW212244   6.061   0.079   2.039 -0.5450 -0.8518 -1.5634
 3118SOL    HW312245   6.151  -0.041   2.024  0.3091 -0.5655  0.8122
 3118SOL    MW412246   6.139   0.045   2.022 -0.6543 -0.0563  0.0317
 3119SOL     OW12247   3.300   0.635   3.694  0.3479  0.1081 -0.0541
 3119SOL    HW212248   3.246   0.711   3.673  0.8614  1.6536  3.4762
 3119SOL    HW312249   3.385   0.653   3.653  0.3360  1.3105  0.4022
 3119SOL    MW412250   3.304   0.647   3.686  0.1861 -0.0823 -0.2009
 3120SOL     OW12251   4.736   3.835   1.791 -0.4145 -0.4198 -0.0889
 3120SOL    HW212252   4.701   3.925   1.788 -1.0617 -0.6373  0.5667
 3120SOL    HW312253   4.705   3.801   1.874  1.8565 -0.4596  0.7961
 3120SOL    MW412254   4.727   3.842   1.801  0.2026  0.0408  0.6181
 3121SOL     OW12255   6.071   0.780   0.976  0.1895  0.5593  0.2349
 3121SOL    HW212256   6.061   0.772   0.881 -3.1571  0.6248  0.4676
 3121SOL    HW312257   6.040   0.696   1.010  2.5785  0.0235  1.3211
 3121SOL    MW412258   6.066   0.768   0.968 -0.3001 -0.1638 -0.1285
 3122SOL     OW12259   0.609   0.715   0.476 -0.0455  0.4164 -0.0225
 3122SOL    HW212260   0.607   0.625   0.446  1.4003 -0.0291  1.1026
 3122SOL    HW312261   0.632   0.766   0.398  0.2779 -0.3195 -0.4194
 3122SOL    MW412262   0.612   0.710   0.462 -0.2592  0.1771  0.6735
 3123SOL     OW12263   4.290   6.054   3.056  0.0586  0.1190  0.4865
 3123SOL    HW212264   4.266   5.964   3.036  0.0051  0.4939 -1.3038
 3123SOL    HW312265   4.208   6.103   3.052  0.3080  0.5028 -0.2233
 3123SOL    MW412266   4.276   6.049   3.053 -0.0844  0.0730 -0.1139
 3124SOL     OW12267   4.148   4.992   6.220 -0.4536  0.2813 -0.0980
 3124SOL    HW212268   4.207   5.039   6.161  2.0118 -1.2976  0.9508
 3124SOL    HW312269   4.157   4.900   6.196 -1.0427 -0.1767  1.3103
 3124SOL    MW412270   4.157   4.986   6.209  0.1089 -0.0095 -1.0034
 3125SOL     OW12271   2.711   3.471   4.166  0.3003  0.5964 -0.0739
 3125SOL    HW212272   2.708   3.499   4.258 -1.7832 -0.3040  0.1892
 3125SOL    HW312273   2.625   3.495   4.131 -0.2420 -2.1366 -0.8153
 3125SOL    MW412274   2.700   3.478   4.174  0.5022  0.1973  0.4756
 3126SOL     OW12275   4.321   2.145   1.350 -0.0388  0.1594  0.4956
 3126SOL    HW212276   4.389   2.079   1.342  0.5224  0.7462  0.3392
 3126SOL    HW312277   4.289   2.136   1.439  0.4202  0.0482  0.6520
 3126SOL    MW412278   4.326   2.135   1.360 -0.4745  0.4781 -0.6588
 3127SOL     OW12279   0.663   2.634   3.943 -0.0377  0.4540 -0.2800
 3127SOL    HW212280   0.636   2.623   3.852 -0.7631 -2.9277  0.1981
 3127SOL    HW312281   0.743   2.687   3.938 -0.1807  0.5528 -2.8526
 3127SOL    MW412282   0.670   2.639   3.930 -0.1971  0.2008 -0.7427
 3128SOL     OW12283   1.919   0.769   5.415 -0.0174  0.0996  0.5175
 3128SOL    HW212284   1.827   0.783   5.437 -0.3559 -1.3869  0.2019
 3128SOL    HW312285   1.922   0.680   5.380  1.2103  0.7828 -1.2943
 3128SOL    MW412286   1.907   0.759   5.413  0.5617 -0.3475  0.1029
 3129SOL     OW12287   3.636   4.428   5.581 -0.1345  0.2557 -0.0297
 3129SOL    HW212288   3.683   4.446   5.500  1.3768 -2.8071  0.0584
 3129SOL    HW312289   3.691   4.465   5.650 -0.6459  1.4803 -0.2545
 3129SOL    MW412290   3.649   4.435   5.579  0.7312 -0.0586 -0.1368
 3130SOL     OW12291   1.839   1.494   6.065  0.0054 -0.2241 -0.3176
 3130SOL    HW212292   1.911   1.490   6.001  0.2704  2.3740 -0.2742
 3130SOL    HW312293   1.775   1.553   6.025 -1.8018 -1.8424  0.0177
 3130SOL    MW412294   1.840   1.501   6.051  0.1169 -0.4356 -0.5480
 3131SOL     OW12295   2.184   1.456   1.668 -0.2899 -0.1019 -0.3670
 3131SOL    HW212296   2.106   1.494   1.707 -0.7057 -0.5360 -0.7626
 3131SOL    HW312297   2.257   1.493   1.719 -0.7920 -0.3552  0.5574
 3131SOL    MW412298   2.184   1.466   1.680  0.6025  0.2076 -0.2430
 3132SOL     OW12299   4.935   5.215   0.150 -0.0419  0.0782 -0.3826
 3132SOL    HW212300   4.932   5.240   0.058 -2.2268  2.2910  0.2098
 3132SOL    HW312301   4.897   5.127   0.152 -0.1375  0.0732 -1.5514
 3132SOL    MW412302   4.930   5.206   0.138  0.4479 -0.0030  0.4704
 3133SOL     OW12303   0.395   0.519   2.481 -0.4541 -0.3985  0.2454
 3133SOL    HW212304   0.454   0.487   2.549 -1.2607 -1.5569  0.4235
 3133SOL    HW312305   0.344   0.587   2.523  2.1848  2.2373 -0.4885
 3133SOL    MW412306   0.396   0.524   2.495 -0.2471 -0.1353 -0.3256
 3134SOL     OW12307   0.145   1.228   4.151 -0.3619  0.2254  0.4741
 3134SOL    HW212308   0.085   1.289   4.109  0.2829  1.0705  0.7544
 3134SOL    HW312309   0.229   1.273   4.151 -0.4402  0.5882  3.2135
 3134SOL    MW412310   0.148   1.242   4.146  0.2917  0.2652  0.3714
 3135SOL     OW12311   2.957   5.536   3.797  0.4606 -0.3896 -0.2379
 3135SOL    HW212312   2.918   5.623   3.784 -0.1516 -0.5261  0.5783
 3135SOL    HW312313   2.920   5.483   3.726 -0.7262 -0.4636  0.4038
 3135SOL    MW412314   2.947   5.540   3.786  0.1682  0.2331  0.1084
 3136SOL     OW12315   2.673   1.893   0.975  0.4525 -0.2338  0.1981
 3136SOL    HW212316   2.587   1.933   0.987 -0.2046 -1.8005  1.0402
 3136SOL    HW312317   2.734   1.954   1.016 -0.3209  0.6318  0.0855
 3136SOL    MW412318   2.670   1.906   0.982 -0.0563 -0.0188  0.1290
 3137SOL     OW12319   2.556   3.062   2.011 -0.1676 -0.0952  0.4658
 3137SOL    HW212320   2.608   3.040   2.088 -0.3410  1.8868  1.2086
 3137SOL    HW312321   2.465   3.053   2.040 -0.2520 -0.9485 -0.0285
 3137SOL    MW412322   2.551   3.058   2.025  0.0979 -0.2148  0.2624
 3138SOL     OW12323   2.559   2.057   2.721  0.0662  0.2305 -0.6687
 3138SOL    HW212324   2.549   2.135   2.775 -0.1598  0.1275 -0.5593
 3138SOL    HW312325   2.526   2.082   2.635 -0.6762  0.0458 -0.4449
 3138SOL    MW412326   2.553   2.071   2.716 -0.1027  0.1484  0.1857
 3139SOL     OW12327   1.726   4.767   2.082 -0.3860  0.7300  0.3921
 3139SOL    HW212328   1.817   4.760   2.053 -0.5645  0.4480 -0.1076
 3139SOL    HW312329   1.730   4.750   2.176  0.1448  1.2628  0.4729
 3139SOL    MW412330   1.738   4.764   2.091  0.2231 -0.8263 -0.3129
 3140SOL     OW12331   5.585   2.224   1.390 -0.0145  0.4464  0.7028
 3140SOL    HW212332   5.646   2.160   1.427 -0.2325 -0.3510 -0.2705
 3140SOL    HW312333   5.509   2.172   1.364 -0.8699  1.3461  1.3622
 3140SOL    MW412334   5.583   2.208   1.391  0.3104  0.9798  0.2801
 3141SOL     OW12335   5.025   3.965   5.382  0.0348 -0.1116 -0.3498
 3141SOL    HW212336   5.104   4.008   5.416 -0.0935  0.0232 -0.2244
 3141SOL    HW312337   4.987   4.029   5.323 -0.2428  0.0107 -0.0414
 3141SOL    MW412338   5.031   3.979   5.379 -0.4190 -0.0110 -0.3364
 3142SOL     OW12339   2.241   3.197   0.773 -0.2260 -0.0299  0.0719
 3142SOL    HW212340   2.267   3.289   0.776  0.0417  0.0997 -3.0581
 3142SOL    HW312341   2.320   3.150   0.746 -1.3216 -0.5620 -2.5094
 3142SOL    MW412342   2.255   3.203   0.770  0.2401  0.4144 -0.5925
 3143SOL     OW12343   3.429   3.561   3.426  0.1091  0.2194 -0.5741
 3143SOL    HW212344   3.375   3.484   3.442  2.2141 -0.5792  4.4578
 3143SOL    HW312345   3.495   3.531   3.363 -0.9511 -1.0615 -1.1191
 3143SOL    MW412346   3.431   3.547   3.420  0.4179  0.3295  0.4665
 3144SOL     OW12347   0.848   4.996   3.072  0.1787 -0.4106 -0.1147
 3144SOL    HW212348   0.761   4.959   3.088  0.0749 -0.1722 -0.1213
 3144SOL    HW312349   0.862   4.986   2.977  0.1940 -0.5240 -0.1006
 3144SOL    MW412350   0.839   4.990   3.061  0.0610  1.0139  0.4980
 3145SOL     OW12351   5.694   3.086   1.505 -0.5262 -0.2811  0.3433
 3145SOL    HW212352   5.741   3.004   1.521  0.9606 -0.0289 -2.1976
 3145SOL    HW312353   5.622   3.061   1.447  0.2999  0.2246 -0.9597
 3145SOL    MW412354   5.690   3.072   1.500 -0.3354  0.5682 -0.2799
 3146SOL     OW12355   3.539   3.847   2.575 -0.4757  0.3139  0.5130
 3146SOL    HW212356   3.632   3.835   2.596 -1.0856 -3.4734  1.9156
 3146SOL    HW312357   3.518   3.773   2.518 -2.8366  0.4281  1.1340
 3146SOL    MW412358   3.548   3.835   2.570 -0.0634  0.0552 -0.2327
 3147SOL     OW12359   2.057   4.844   5.843 -0.3236  0.2101  0.5725
 3147SOL    HW212360   2.021   4.770   5.892  1.3123  0.3041  1.9983
 3147SOL    HW312361   1.981   4.883   5.800 -1.1855 -2.6082 -0.7322
 3147SOL    MW412362   2.042   4.839   5.844  0.0972 -0.4491  0.3713
 3148SOL     OW12363   6.137   2.547   1.856  0.2254 -0.3166 -0.3514
 3148SOL    HW212364   6.125   2.563   1.950  0.0278  1.2320 -0.6084
 3148SOL    HW312365   6.105   2.458   1.843 -1.4582  0.0681  0.7653
 3148SOL    MW412366   6.131   2.537   1.867  0.6179  0.2179 -0.4142
 3149SOL     OW12367   6.298   3.846   5.649 -0.3876  0.3073  0.3478
 3149SOL    HW212368   6.308   3.847   5.744  2.1959 -0.2656  0.1538
 3149SOL    HW312369   6.373   3.895   5.616 -0.5661 -0.5347 -1.4309
 3149SOL    MW412370   6.309   3.853   5.657 -0.3681 -0.2417 -0.2340
 3150SOL     OW12371   1.622   5.765   4.878  0.4504 -0.8269  0.0542
 3150SOL    HW212372   1.549   5.754   4.817 -0.8835  0.4649  1.3160
 3150SOL    HW312373   1.676   5.687   4.867 -0.7422 -1.4748 -1.4394
 3150SOL    MW412374   1.620   5.753   4.869  0.2314  0.0837 -0.0740
 3151SOL     OW12375   1.668   5.993   4.253 -0.3063 -0.2282 -0.4183
 3151SOL    HW212376   1.611   6.069   4.265 -0.7467 -0.7455  0.9524
 3151SOL    HW312377   1.692   5.967   4.341  3.6423  1.1090 -0.9080
 3151SOL    MW412378   1.663   6.000   4.266  0.1353  0.1002  0.1375
 3152SOL     OW12379   6.037   2.611   1.274 -0.4122  0.7205 -0.4624
 3152SOL    HW212380   6.117   2.561   1.256 -1.2751 -0.4818 -1.0477
 3152SOL    HW312381   6.067   2.683   1.331  0.9859 -0.0089 -0.2221
 3152SOL    MW412382   6.052   2.614   1.279  0.2161 -0.6487  0.2565
 3153SOL     OW12383   1.315   3.430   2.329  0.0378  0.1732  0.3372
 3153SOL    HW212384   1.381   3.371   2.291 -0.9279 -0.3947 -0.5167
 3153SOL    HW312385   1.241   3.373   2.350 -0.8078  1.0176 -0.2311
 3153SOL    MW412386   1.314   3.415   2.327  0.8377  0.0436 -0.3329
 3154SOL     OW12387   1.177   1.658   5.141 -0.3017  0.2488 -0.1473
 3154SOL    HW212388   1.155   1.573   5.180 -0.1074 -0.2304 -1.0573
 3154SOL    HW312389   1.096   1.707   5.143 -0.2078  0.3922  1.2227
 3154SOL    MW412390   1.164   1.653   5.146 -0.0462  0.4338 -0.4529
 3155SOL     OW12391   2.341   5.130   5.565 -0.4246  0.0202  0.5667
 3155SOL    HW212392   2.317   5.197   5.501 -1.4815 -2.7788 -2.2866
 3155SOL    HW312393   2.434   5.113   5.548 -0.1507  0.7587  1.3069
 3155SOL    MW412394   2.350   5.137   5.554  0.4160  0.5320  0.2834
 3156SOL     OW12395   1.769   1.911   5.493  0.3416 -0.4109  0.1835
 3156SOL    HW212396   1.789   1.999   5.462  1.1907 -0.6593 -0.0297
 3156SOL    HW312397   1.674   1.904   5.489  0.3903 -0.5720 -2.8813
 3156SOL    MW412398   1.759   1.921   5.488  0.2389  0.1844 -0.0752
 3157SOL     OW12399   3.668   2.985   5.762  0.0367 -0.1363  0.4387
 3157SOL    HW212400   3.680   2.891   5.744 -1.4480  0.0620 -2.0256
 3157SOL    HW312401   3.619   2.988   5.844 -0.1482 -1.5201  0.4028
 3157SOL    MW412402   3.663   2.973   5.770  0.4245 -0.7780  0.0921
 3158SOL     OW12403   0.205   4.569   4.059  0.8369 -0.2822 -0.1775
 3158SOL    HW212404   0.291   4.612   4.064  0.8895 -0.2003 -1.5088
 3158SOL    HW312405   0.160   4.614   3.988 -0.2105 -0.5293  0.3155
 3158SOL    MW412406   0.210   4.581   4.050  0.0327 -0.3289 -0.2687
 3159SOL     OW12407   0.645   2.526   0.676  0.4872 -0.5544  0.2317
 3159SOL    HW212408   0.557   2.524   0.714  0.8970 -0.4081  1.2296
 3159SOL    HW312409   0.702   2.500   0.748  1.3088 -0.1379 -0.2601
 3159SOL    MW412410   0.641   2.523   0.691  0.7847  1.1335  0.4120
 3160SOL     OW12411   2.769   5.711   0.522 -0.0404 -0.1510 -0.1779
 3160SOL    HW212412   2.816   5.787   0.488 -1.9864  1.7205  1.0157
 3160SOL    HW312413   2.835   5.660   0.569  1.2291  1.0518 -0.6135
 3160SOL    MW412414   2.784   5.714   0.524 -0.2324  0.3778 -0.0136
 3161SOL     OW12415   1.038   0.412   2.839 -0.5485  0.8801 -0.3524
 3161SOL    HW212416   1.108   0.399   2.776 -1.1996 -1.9792 -0.6206
 3161SOL    HW312417   1.075   0.382   2.922 -0.3672  2.7328  0.3036
 3161SOL    MW412418   1.052   0.407   2.842 -0.1777  0.2419  0.2177
 3162SOL     OW12419   5.699   2.864   0.866  0.7313  0.4000 -0.4841
 3162SOL    HW212420   5.720   2.941   0.814  0.5088  1.3531  0.7869
 3162SOL    HW312421   5.658   2.803   0.805 -0.4918  1.8999 -1.1900
 3162SOL    MW412422   5.697   2.866   0.851  0.2740 -0.0347 -0.1128
 3163SOL     OW12423   1.274   4.671   5.314  0.3625  0.8189  0.1753
 3163SOL    HW212424   1.222   4.723   5.376 -1.2218  0.5324 -0.8610
 3163SOL    HW312425   1.222   4.592   5.299  0.8045  0.7742 -1.3287
 3163SOL    MW412426   1.261   4.667   5.320 -0.0845 -0.5987 -0.3221
 3164SOL     OW12427   1.728   6.351   1.946 -0.2763 -0.4568  0.2596
 3164SOL    HW212428   1.659   6.285   1.939  0.1721 -0.9893  0.7752
 3164SOL    HW312429   1.740   6.363   2.040 -0.7748  0.8255  0.1901
 3164SOL    MW412430   1.720   6.344   1.958  0.3954 -0.4682 -0.0493
 3165SOL     OW12431   6.127   4.634   5.717 -0.0983  0.2265  0.0645
 3165SOL    HW212432   6.074   4.555   5.708  0.6653 -0.1641 -1.4702
 3165SOL    HW312433   6.104   4.687   5.641  1.0510  0.4302 -0.1640
 3165SOL    MW412434   6.117   4.630   5.706  0.1324  0.0502 -0.4524
 3166SOL     OW12435   0.929   2.776   1.834 -0.3533  0.1057  0.3388
 3166SOL    HW212436   0.938   2.682   1.849  1.0551 -0.1343 -1.6323
 3166SOL    HW312437   0.836   2.789   1.814 -0.3125 -1.0994 -0.6995
 3166SOL    MW412438   0.918   2.766   1.833  0.3507  0.4072 -0.1741
 3167SOL     OW12439   3.888   4.480   0.376  0.2972  0.2447 -0.1757
 3167SOL    HW212440   3.886   4.422   0.453  1.3173 -0.7610 -0.8550
 3167SOL    HW312441   3.852   4.426   0.305 -0.0768  0.9529 -0.5276
 3167SOL    MW412442   3.883   4.465   0.377  0.3714  0.3606  0.1901
 3168SOL     OW12443   3.247   4.276   1.426 -0.6478  0.6277  0.2444
 3168SOL    HW212444   3.335   4.238   1.423 -0.1715  1.6855 -1.9866
 3168SOL    HW312445   3.262   4.369   1.440 -0.9397  1.5794 -4.2074
 3168SOL    MW412446   3.260   4.283   1.427  0.3335 -0.1882 -0.3082
 3169SOL     OW12447   5.135   6.139   1.309 -0.1646 -0.1595  0.0306
 3169SOL    HW212448   5.174   6.196   1.242 -1.1829  0.5797  0.0395
 3169SOL    HW312449   5.136   6.192   1.389  0.2356 -0.7127  0.3989
 3169SOL    MW412450   5.140   6.154   1.311  0.0638  0.6727 -0.0666
 3170SOL     OW12451   6.052   4.541   4.583 -0.3126 -0.2663  0.2197
 3170SOL    HW212452   6.083   4.574   4.499 -0.2330  0.4809  0.5396
 3170SOL    HW312453   6.117   4.475   4.608  0.6088  0.7355  0.5149
 3170SOL    MW412454   6.065   4.536   4.575 -0.1008  0.1107  0.2634
 3171SOL     OW12455   4.172   0.657   2.172 -0.0559  0.0309  0.4343
 3171SOL    HW212456   4.168   0.591   2.241 -1.3858  1.1746  1.5009
 3171SOL    HW312457   4.081   0.676   2.152  0.2974 -0.2923 -1.7078
 3171SOL    MW412458   4.160   0.651   2.178 -0.8560  0.0191  0.2694
 3172SOL     OW12459   5.842   3.332   1.550 -0.4577 -0.4548 -0.1514
 3172SOL    HW212460   5.921   3.284   1.576 -1.6815 -2.1193  0.7136
 3172SOL    HW312461   5.784   3.264   1.516 -1.4007  0.7816 -1.0833
 3172SOL    MW412462   5.845   3.316   1.549 -0.5831  0.6126  0.5164
 3173SOL     OW12463   2.793   5.291   2.031  0.2696 -0.2474  0.1267
 3173SOL    HW212464   2.788   5.364   1.970  0.0610 -0.3360  0.0400
 3173SOL    HW312465   2.757   5.217   1.984  3.1025 -1.1338 -0.8701
 3173SOL    MW412466   2.788   5.291   2.017  0.4340  0.3665 -0.9874
 3174SOL     OW12467   2.627   5.317   1.654  0.2500 -0.3679 -0.0285
 3174SOL    HW212468   2.581   5.400   1.672 -0.0856 -0.6714  0.5672
 3174SOL    HW312469   2.589   5.286   1.572 -1.4631 -1.1755  1.0128
 3174SOL    MW412470   2.616   5.324   1.646  0.8528 -0.7058 -0.0616
 3175SOL     OW12471   6.348   5.115   2.631  0.0865  0.3450  0.4085
 3175SOL    HW212472   6.275   5.148   2.578  0.1783 -0.3105 -0.1420
 3175SOL    HW312473   6.358   5.024   2.604  0.6112  0.2078  1.0421
 3175SOL    MW412474   6.339   5.107   2.620 -0.0865  0.6718  0.0868
 3176SOL     OW12475   1.131   5.136   5.707  0.0146  0.4077 -0.0967
 3176SOL    HW212476   1.052   5.182   5.678  0.8615  0.6899 -2.1445
 3176SOL    HW312477   1.100   5.073   5.771 -1.5243  2.1755  1.0135
 3176SOL    MW412478   1.116   5.134   5.712  1.0465 -0.3065  0.0192
 3177SOL     OW12479   1.197   1.156   0.959  0.0929  0.4280  0.1544
 3177SOL    HW212480   1.106   1.174   0.983  0.1816  1.3743 -0.1729
 3177SOL    HW312481   1.248   1.187   1.033  0.1240 -0.8637  0.7036
 3177SOL    MW412482   1.191   1.162   0.972 -0.2074  0.1630  0.2215
 3178SOL     OW12483   5.064   0.861   0.707 -0.2884  0.3589  0.4071
 3178SOL    HW212484   5.039   0.802   0.635 -0.1156  0.9779 -0.1712
 3178SOL    HW312485   5.159   0.850   0.715 -0.1906  0.8852 -0.0012
 3178SOL    MW412486   5.073   0.852   0.698  0.3006 -0.0883  0.1972
 3179SOL     OW12487   5.253   1.080   5.687  0.1058 -0.0357 -0.6186
 3179SOL    HW212488   5.312   1.016   5.647 -0.3326 -1.4100  0.8332
 3179SOL    HW312489   5.312   1.144   5.728  0.6273 -1.1826  0.4826
 3179SOL    MW412490   5.269   1.080   5.687 -0.2415 -0.2881  0.5988
 3180SOL     OW12491   0.389   0.591   4.021 -0.6349 -0.4789 -0.4190
 3180SOL    HW212492   0.342   0.673   4.039 -1.8363 -1.0244 -0.9446
 3180SOL    HW312493   0.395   0.587   3.926  1.8252  0.2756 -0.3608
 3180SOL    MW412494   0.383   0.601   4.011  0.6993  0.2339  0.4113
 3181SOL     OW12495   5.682   5.450   2.548 -0.7925 -0.0664 -0.2306
 3181SOL    HW212496   5.595   5.488   2.537 -1.4476 -1.4883 -0.1497
 3181SOL    HW312497   5.711   5.428   2.460 -0.6842  0.0261 -0.2194
 3181SOL    MW412498   5.675   5.453   2.535 -0.5273  0.1892 -0.1997
 3182SOL     OW12499   3.846   2.064   3.727  0.3683 -1.0393 -0.3834
 3182SOL    HW212500   3.800   2.037   3.647  0.3623 -0.1514 -0.6906
 3182SOL    HW312501   3.788   2.035   3.798 -0.5797 -0.1334 -0.7610
 3182SOL    MW412502   3.832   2.057   3.726 -0.1349  0.0935  0.0211
 3183SOL     OW12503   0.919   3.471   5.859 -0.0255  0.7286  0.5282
 3183SOL    HW212504   0.995   3.435   5.904  0.5028  1.5149  0.2850
 3183SOL    HW312505   0.950   3.552   5.819 -0.4435  0.0186 -1.3641
 3183SOL    MW412506   0.933   3.477   5.860  0.0202 -0.1191 -0.0499
 3184SOL     OW12507   0.354   5.088   0.062 -0.0009  0.0696  0.2963
 3184SOL    HW212508   0.308   5.160   0.105 -2.0551 -0.0449 -1.5322
 3184SOL    HW312509   0.331   5.011   0.114 -0.5884  0.2477  0.3052
 3184SOL    MW412510   0.345   5.087   0.075 -0.3390 -0.3197 -0.3481
 3185SOL     OW12511   4.701   1.434   3.471 -0.2891  0.4008  0.4282
 3185SOL    HW212512   4.682   1.352   3.517 -2.3708  0.7220  0.2359
 3185SOL    HW312513   4.796   1.433   3.458 -0.4188 -3.0308 -1.4798
 3185SOL    MW412514   4.711   1.423   3.475 -0.2047  0.5348  0.4444
 3186SOL     OW12515   3.198   5.543   4.376  0.3610 -0.5422 -0.2118
 3186SOL    HW212516   3.159   5.460   4.349 -1.7224  0.0359  0.8435
 3186SOL    HW312517   3.289   5.521   4.397 -0.1866 -2.5775  0.1871
 3186SOL    MW412518   3.205   5.529   4.375 -0.1203 -0.0506 -0.3218
 3187SOL     OW12519   4.789   4.022   2.979 -0.3387 -0.0790 -0.3093
 3187SOL    HW212520   4.849   4.015   2.905 -0.8597 -0.3629 -0.7195
 3187SOL    HW312521   4.702   4.018   2.939 -0.6657  2.1699  0.0878
 3187SOL    MW412522   4.785   4.020   2.964  0.0628 -0.3421  0.2545
 3188SOL     OW12523   1.027   1.980   2.867  0.0554  0.1193 -0.0796
 3188SOL    HW212524   0.949   1.928   2.851  0.3026  0.1527 -1.5437
 3188SOL    HW312525   1.046   2.022   2.783  1.2812  0.6089  0.4106
 3188SOL    MW412526   1.020   1.979   2.854 -0.5745 -0.1900  0.8429
 3189SOL     OW12527   4.453   3.648   3.011  0.4233 -0.0330  0.6288
 3189SOL    HW212528   4.530   3.690   3.050 -0.8592  1.6137  1.4718
 3189SOL    HW312529   4.406   3.610   3.085 -0.5717  0.6666  0.3735
 3189SOL    MW412530   4.457   3.648   3.026  0.6537  0.0046  0.1045
 3190SOL     OW12531   6.031   5.134   2.890  0.4210  0.0688  0.0852
 3190SOL    HW212532   6.071   5.047   2.891 -2.6662 -1.4929 -0.7508
 3190SOL    HW312533   5.988   5.142   2.974 -1.6750 -0.5026 -0.8697
 3190SOL    MW412534   6.031   5.124   2.901  0.4256 -0.7161 -0.5493
 3191SOL     OW12535   2.200   6.377   2.972  0.0028  1.2734 -0.3239
 3191SOL    HW212536   2.200   6.396   3.066 -0.6091 -1.0476  0.2184
 3191SOL    HW312537   2.107   6.377   2.948  0.1080  1.0504 -0.7411
 3191SOL    MW412538   2.187   6.379   2.981 -0.0084 -0.0163  0.0085
 3192SOL     OW12539   0.799   0.486   3.433  0.6543 -0.4258  0.3314
 3192SOL    HW212540   0.889   0.466   3.410  0.5811 -0.7893  0.3620
 3192SOL    HW312541   0.785   0.575   3.400  0.7809 -0.6578 -0.3499
 3192SOL    MW412542   0.809   0.495   3.426 -0.4726  0.1088  0.2231
 3193SOL     OW12543   5.338   2.502   2.662  0.0429  0.1703  0.3070
 3193SOL    HW212544   5.320   2.413   2.691  2.4465 -0.6995 -0.6541
 3193SOL    HW312545   5.374   2.545   2.740  0.0035 -0.0454  0.4462
 3193SOL    MW412546   5.340   2.496   2.676  0.4571  1.0333 -0.3221
 3194SOL     OW12547   5.834   5.667   0.988 -0.4502  0.1029 -0.2188
 3194SOL    HW212548   5.838   5.760   0.965 -1.1926  0.3285  0.4871
 3194SOL    HW312549   5.805   5.666   1.079 -2.2353 -0.8367 -0.7386
 3194SOL    MW412550   5.830   5.679   0.997  0.1913  0.1307 -0.5406
 3195SOL     OW12551   2.739   2.644   4.357 -0.3793 -0.0233 -0.3413
 3195SOL    HW212552   2.718   2.629   4.264 -1.1000 -0.0881 -0.1735
 3195SOL    HW312553   2.806   2.712   4.355  0.9883 -1.3085 -0.9943
 3195SOL    MW412554   2.745   2.651   4.344 -0.2173 -0.0670  0.1385
 3196SOL     OW12555   5.358   2.023   2.102  0.2735  0.0212  0.4233
 3196SOL    HW212556   5.426   1.956   2.110  0.8142  0.4492 -0.3944
 3196SOL    HW312557   5.288   1.993   2.160  1.0611 -0.5495  1.1085
 3196SOL    MW412558   5.358   2.010   2.110 -0.1724  0.7769  0.4026
 3197SOL     OW12559   1.476   1.505   0.263 -0.0378  0.0280 -0.0946
 3197SOL    HW212560   1.562   1.465   0.258 -0.5724 -1.1361 -0.2192
 3197SOL    HW312561   1.491   1.590   0.305  0.6525 -1.8592  3.8754
 3197SOL    MW412562   1.489   1.511   0.268  0.5030 -0.2647  0.3201
 3198SOL     OW12563   2.480   0.512   0.752 -0.1132 -0.2215 -0.4089
 3198SOL    HW212564   2.419   0.527   0.824 -0.6433 -0.0109 -0.8893
 3198SOL    HW312565   2.435   0.549   0.675  1.0177  0.7682 -0.6133
 3198SOL    MW412566   2.466   0.519   0.751 -0.3720  0.5656  0.5439
 3199SOL     OW12567   1.582   6.174   0.717 -0.2490 -0.1689  0.6074
 3199SOL    HW212568   1.603   6.161   0.809 -1.8623 -1.8530  0.7906
 3199SOL    HW312569   1.615   6.094   0.674  2.2720  1.4072 -0.6782
 3199SOL    MW412570   1.589   6.162   0.723  0.1968 -0.0901 -0.7088
 3200SOL     OW12571   2.731   2.020   4.848 -0.7185 -0.3864 -0.2099
 3200SOL    HW212572   2.649   1.972   4.861 -1.6180  0.2812 -2.7979
 3200SOL    HW312573   2.709   2.111   4.869 -1.2287  0.0992 -2.5551
 3200SOL    MW412574   2.717   2.025   4.853  0.1722  0.3759 -0.2186
 3201SOL     OW12575   1.777   0.515   5.656 -0.6128  0.4179 -0.3750
 3201SOL    HW212576   1.804   0.513   5.748 -1.3904  0.2710 -0.1447
 3201SOL    HW312577   1.719   0.439   5.646 -1.0391  0.7953 -0.8230
 3201SOL    MW412578   1.773   0.505   5.667 -0.0737  0.5581  0.0942
 3202SOL     OW12579   2.212   2.701   2.187  0.0855  0.1517  0.1740
 3202SOL    HW212580   2.145   2.664   2.130 -0.8750 -0.6672  1.7650
 3202SOL    HW312581   2.170   2.777   2.227  0.4086  0.1504  0.5190
 3202SOL    MW412582   2.198   2.706   2.185 -0.3623  0.1814 -0.1831
 3203SOL     OW12583   5.788   0.463   4.553  0.6174 -0.2652 -0.2392
 3203SOL    HW212584   5.856   0.424   4.498  1.7618  0.0085  0.9471
 3203SOL    HW312585   5.706   0.434   4.513  1.4130 -0.7618 -1.5898
 3203SOL    MW412586   5.786   0.454   4.540 -0.3444 -0.1613 -0.1898
 3204SOL     OW12587   1.041   2.857   6.159 -0.3087 -0.3632  0.3891
 3204SOL    HW212588   1.132   2.861   6.189 -0.6979  1.6783  1.4489
 3204SOL    HW312589   0.989   2.850   6.239 -1.1913  1.3314  0.0137
 3204SOL    MW412590   1.046   2.856   6.173 -0.3262  0.3734 -0.0802
 3205SOL     OW12591   1.230   1.626   0.919 -0.0838 -0.2397 -0.1585
 3205SOL    HW212592   1.313   1.580   0.932 -0.7376 -1.7471 -1.0057
 3205SOL    HW312593   1.240   1.708   0.966  1.2340 -1.1542  1.2403
 3205SOL    MW412594   1.242   1.631   0.927 -0.2701 -0.2943 -0.2707
 3206SOL     OW12595   1.888   4.306   2.957  0.6950  0.4618  0.1445
 3206SOL    HW212596   1.952   4.336   3.021  1.4934 -3.1449  1.2781
 3206SOL    HW312597   1.938   4.294   2.876  0.7618  0.4718  0.1844
 3206SOL    MW412598   1.903   4.309   2.954 -0.0418 -0.0697  0.1039
 3207SOL     OW12599   2.057   2.023   2.961 -0.1331 -0.3724 -0.4235
 3207SOL    HW212600   1.969   2.009   2.995 -0.8252  0.6432 -1.7186
 3207SOL    HW312601   2.056   1.984   2.874  0.3949  0.4799 -0.8195
 3207SOL    MW412602   2.045   2.016   2.954  0.2552 -0.1543 -0.4742
 3208SOL     OW12603   1.980   1.148   3.589 -0.1893 -0.5214  0.2152
 3208SOL    HW212604   1.946   1.079   3.646  0.1822 -0.4737  0.4972
 3208SOL    HW312605   1.902   1.189   3.552 -0.4332 -2.4332 -1.5887
 3208SOL    MW412606   1.965   1.144   3.592 -0.1095  0.2730 -0.1069
 3209SOL     OW12607   4.965   0.598   6.005 -0.2692  0.2239 -0.5280
 3209SOL    HW212608   4.909   0.638   5.939 -1.0498 -0.9976 -0.6397
 3209SOL    HW312609   4.908   0.587   6.081 -0.0856 -0.6919 -0.5192
 3209SOL    MW412610   4.950   0.602   6.006  0.3375  0.0367  0.1150
 3210SOL     OW12611   6.349   2.642   0.130 -0.5388 -0.1257  0.2060
 3210SOL    HW212612   6.306   2.727   0.117 -0.8306 -0.3402 -0.2605
 3210SOL    HW312613   6.278   2.578   0.120  0.1216 -0.5845 -2.0922
 3210SOL    MW412614   6.334   2.645   0.127  0.0156 -0.3412  0.0697
 3211SOL     OW12615   4.205   1.267   0.822  0.5328  0.3264  0.0607
 3211SOL    HW212616   4.123   1.302   0.857  0.1631 -1.4935  1.1766
 3211SOL    HW312617   4.251   1.233   0.899  0.4572 -2.2763 -0.9218
 3211SOL    MW412618   4.200   1.267   0.837 -0.4594  0.0823  0.2690
 3212SOL     OW12619   3.312   5.828   3.914  0.1602 -0.3639  0.0684
 3212SOL    HW212620   3.366   5.749   3.916  0.0304 -0.4493  0.4348
 3212SOL    HW312621   3.232   5.803   3.960 -0.3500 -0.3504 -0.7958
 3212SOL    MW412622   3.308   5.814   3.921  0.0467  0.5640 -0.4379
 3213SOL     OW12623   4.863   4.688   1.377 -1.0317 -0.4662 -0.3863
 3213SOL    HW212624   4.947   4.645   1.363 -1.0027 -0.3611 -0.5325
 3213SOL    HW312625   4.803   4.617   1.399 -0.4936 -0.3680  1.6035
 3213SOL    MW412626   4.866   4.673   1.378 -0.0509 -0.5355 -0.0144
 3214SOL     OW12627   0.033   0.772   3.303 -0.1321 -0.1964  0.0671
 3214SOL    HW212628   0.112   0.824   3.285 -2.1892  2.6497 -1.4271
 3214SOL    HW312629   0.007   0.737   3.218  0.0321 -2.0064  0.7202
 3214SOL    MW412630   0.040   0.774   3.289 -0.4077 -1.0128  0.6385
 3215SOL     OW12631   2.145   0.180   1.911  0.2454  0.0735  0.2898
 3215SOL    HW212632   2.099   0.142   1.836  0.5742 -1.1687  0.6828
 3215SOL    HW312633   2.226   0.128   1.917  2.3054  2.8780 -1.0640
 3215SOL    MW412634   2.150   0.168   1.902 -0.1101  0.1423  0.0046
 3216SOL     OW12635   5.093   0.693   5.425  0.4828 -0.1113 -0.2321
 3216SOL    HW212636   5.119   0.646   5.505 -0.4344  1.1518  0.8533
 3216SOL    HW312637   5.151   0.768   5.422  0.7096 -0.3130 -0.9326
 3216SOL    MW412638   5.104   0.696   5.435 -0.3167  0.1170  0.0249
 3217SOL     OW12639   4.353   0.271   0.784 -0.1804  0.3188  0.5234
 3217SOL    HW212640   4.435   0.313   0.759  0.4518 -0.8531  0.5101
 3217SOL    HW312641   4.367   0.244   0.875 -0.4878 -0.0102  0.4771
 3217SOL    MW412642   4.366   0.273   0.793  0.0544  0.2144  0.2809
 3218SOL     OW12643   3.142   1.489   4.627 -0.2204 -0.4365  0.5496
 3218SOL    HW212644   3.184   1.512   4.710 -0.3591 -1.2671  0.8558
 3218SOL    HW312645   3.206   1.512   4.560  0.4698 -1.0965  0.9745
 3218SOL    MW412646   3.156   1.495   4.629  0.6793 -0.0041 -0.2184
 3219SOL     OW12647   4.361   6.208   2.238 -0.4713  0.0908  0.0592
 3219SOL    HW212648   4.320   6.294   2.230 -1.8422 -0.4896  0.5315
 3219SOL    HW312649   4.379   6.182   2.147 -0.5091  0.6677 -0.1161
 3219SOL    MW412650   4.358   6.216   2.225  0.0781 -0.4146 -0.3734
 3220SOL     OW12651   2.439   2.555   6.072 -0.2870 -0.2038 -0.5067
 3220SOL    HW212652   2.490   2.568   5.992  0.4029  0.1577 -0.0292
 3220SOL    HW312653   2.354   2.595   6.054 -0.1413 -0.1343 -1.0580
 3220SOL    MW412654   2.435   2.562   6.059 -0.0186  0.4285  0.1364
 3221SOL     OW12655   0.123   3.938   0.597 -0.2199 -0.0533  0.0172
 3221SOL    HW212656   0.209   3.950   0.555 -0.9106  0.5876 -1.2592
 3221SOL    HW312657   0.137   3.967   0.688  0.6698  1.0377 -0.4376
 3221SOL    MW412658   0.136   3.944   0.604 -0.4492  0.1458  0.4357
 3222SOL     OW12659   4.340   3.390   1.031  0.3342  0.4675 -0.0197
 3222SOL    HW212660   4.413   3.328   1.033 -0.5363 -0.6029  0.2363
 3222SOL    HW312661   4.369   3.460   0.973  1.1719 -0.4400 -0.7437
 3222SOL    MW412662   4.353   3.391   1.024 -0.2761  0.2334 -0.0388
 3223SOL     OW12663   2.831   3.960   1.646  0.0998 -0.4284 -0.1776
 3223SOL    HW212664   2.899   3.972   1.712  0.3059  0.1704 -0.4878
 3223SOL    HW312665   2.835   3.867   1.623  1.6172 -0.1843 -1.0294
 3223SOL    MW412666   2.840   3.950   1.651  0.5441 -0.4212  0.4759
 3224SOL     OW12667   3.492   0.272   4.928 -0.0167 -0.6302 -0.2869
 3224SOL    HW212668   3.513   0.365   4.919  2.9502 -1.2053 -0.3089
 3224SOL    HW312669   3.514   0.251   5.019 -2.5321 -0.9650  0.3118
 3224SOL    MW412670   3.498   0.282   4.939 -0.1976  0.6267  0.0510
 3225SOL     OW12671   4.185   5.110   2.931 -0.4007  0.1492 -0.2810
 3225SOL    HW212672   4.145   5.175   2.872  4.6392  2.7301 -1.3626
 3225SOL    HW312673   4.200   5.157   3.013  0.5783 -0.5880 -0.0167
 3225SOL    MW412674   4.181   5.125   2.934  0.1564 -0.1757 -0.0436
 3226SOL     OW12675   2.584   6.208   0.925 -0.0266 -0.0944  0.3327
 3226SOL    HW212676   2.544   6.235   0.843 -0.0761 -1.0071  0.0406
 3226SOL    HW312677   2.522   6.236   0.992 -1.0130 -1.1632 -0.0949
 3226SOL    MW412678   2.570   6.215   0.923 -0.2159  0.9028  0.7302
 3227SOL     OW12679   6.097   4.824   5.944 -0.0553  0.1576 -0.0571
 3227SOL    HW212680   6.087   4.765   5.869  0.8641  0.7945 -0.6879
 3227SOL    HW312681   6.020   4.805   5.999 -0.7243 -0.3471 -1.1296
 3227SOL    MW412682   6.085   4.814   5.942  0.4928 -0.2757  0.0048
 3228SOL     OW12683   1.405   0.420   0.139 -0.5272 -0.7134 -0.0468
 3228SOL    HW212684   1.373   0.371   0.063  2.6189 -2.2302 -0.5526
 3228SOL    HW312685   1.405   0.511   0.110 -0.0501 -1.1877 -1.6553
 3228SOL    MW412686   1.401   0.426   0.125 -0.6512 -0.6905 -0.2281
 3229SOL     OW12687   1.807   4.293   5.142 -0.0025 -0.1809  0.0140
 3229SOL    HW212688   1.889   4.342   5.137  1.4081 -2.5088 -0.6502
 3229SOL    HW312689   1.746   4.355   5.183  2.2158  1.4003  1.1447
 3229SOL    MW412690   1.809   4.308   5.147  0.2961 -0.4812  0.0213
 3230SOL     OW12691   3.390   6.148   5.685 -1.0390  0.0256 -0.6454
 3230SOL    HW212692   3.365   6.062   5.717  1.3741 -0.3888  0.3260
 3230SOL    HW312693   3.352   6.209   5.748  0.3720 -0.5796  0.8528
 3230SOL    MW412694   3.381   6.145   5.697  0.3379 -0.2086  0.0498
 3231SOL     OW12695   0.069   3.785   6.326 -0.7301  0.2771  0.0005
 3231SOL    HW212696  -0.008   3.812   6.375 -1.7867  0.6095 -1.7864
 3231SOL    HW312697   0.101   3.865   6.284 -1.4067 -0.4090 -1.9413
 3231SOL    MW412698   0.063   3.799   6.327  0.3487  0.5879  0.1579
 3232SOL     OW12699   0.824   3.098   4.990  0.1447  0.3886 -0.3772
 3232SOL    HW212700   0.771   3.070   4.915 -0.1683  1.5142 -0.6042
 3232SOL    HW312701   0.764   3.097   5.064 -0.0591  1.1070 -0.5230
 3232SOL    MW412702   0.809   3.094   4.989 -0.3756 -0.4305 -0.2466
 3233SOL     OW12703   3.506   4.711   1.696 -0.6487  0.5175 -0.2366
 3233SOL    HW212704   3.508   4.695   1.602  0.3936 -0.2496 -0.0952
 3233SOL    HW312705   3.435   4.775   1.708 -1.2077  0.1487 -1.4557
 3233SOL    MW412706   3.497   4.718   1.685 -0.4523  0.0967  0.2902
 3234SOL     OW12707   0.720   2.508   2.741  0.4040  0.1166 -0.0096
 3234SOL    HW212708   0.689   2.544   2.658 -0.0778 -2.2147 -0.9176
 3234SOL    HW312709   0.732   2.584   2.797 -0.1882  1.6837 -1.9011
 3234SOL    MW412710   0.718   2.523   2.737  0.7156  0.2010  0.0100
 3235SOL     OW12711   5.503   3.282   6.405  0.0389  0.3904 -0.3320
 3235SOL    HW212712   5.570   3.268   6.338 -0.4977  0.6115 -0.9224
 3235SOL    HW312713   5.430   3.323   6.359  0.4863  2.5999  0.7979
 3235SOL    MW412714   5.502   3.285   6.390 -0.8825  0.1064 -0.1087
 3236SOL     OW12715   0.207   4.427   4.641 -0.4486 -0.9106 -0.1772
 3236SOL    HW212716   0.165   4.480   4.573 -2.4823 -1.3111  0.6679
 3236SOL    HW312717   0.180   4.338   4.621 -1.1224 -1.0268  1.1435
 3236SOL    MW412718   0.198   4.423   4.629  0.4270 -0.2764 -0.3295
 3237SOL     OW12719   3.543   4.983   5.921 -0.0869 -0.0819  0.2418
 3237SOL    HW212720   3.594   4.964   6.000  0.3074  0.4154  0.1115
 3237SOL    HW312721   3.589   4.938   5.851 -0.4698 -0.5714  0.3009
 3237SOL    MW412722   3.556   4.975   5.923  0.1412  0.5956 -0.1807
 3238SOL     OW12723   1.498   1.805   3.408  0.5741 -0.2728  0.1177
 3238SOL    HW212724   1.446   1.847   3.340 -1.3772  0.0524  1.7223
 3238SOL    HW312725   1.565   1.869   3.431 -0.1034  0.4894  0.0038
 3238SOL    MW412726   1.500   1.819   3.402 -0.3125 -0.2181  0.8216
 3239SOL     OW12727   1.312   5.052   1.193  0.0115 -0.1781  0.5544
 3239SOL    HW212728   1.294   5.075   1.102  0.7783 -0.2068  0.3884
 3239SOL    HW312729   1.391   5.101   1.216  0.9209 -1.5866  0.5953
 3239SOL    MW412730   1.320   5.061   1.184 -0.4105 -0.0291  0.3542
 3240SOL     OW12731   5.127   1.601   3.053  0.3474 -0.0416 -0.3640
 3240SOL    HW212732   5.053   1.541   3.043  1.1238 -0.8040 -1.9853
 3240SOL    HW312733   5.132   1.646   2.968 -1.3145  3.7245  1.3014
 3240SOL    MW412734   5.118   1.599   3.040  0.2843 -0.1611 -0.2997
 3241SOL     OW12735   6.029   5.844   2.055  0.0107  0.3583  0.1964
 3241SOL    HW212736   6.020   5.867   1.962  1.4182  0.3908  0.0463
 3241SOL    HW312737   6.045   5.927   2.099 -1.2987  0.4292  0.5870
 3241SOL    MW412738   6.030   5.858   2.048 -0.2708  0.3967  0.6615
 3242SOL     OW12739   4.235   0.589   2.966  0.2978 -0.1308  0.6280
 3242SOL    HW212740   4.207   0.544   2.887 -1.9396  0.0215  1.2551
 3242SOL    HW312741   4.180   0.667   2.970  0.6091  0.0503  2.1283
 3242SOL    MW412742   4.224   0.593   2.956  0.0110 -0.2429  0.4058
 3243SOL     OW12743   1.709   3.544   2.126  0.2143 -0.1197 -0.4105
 3243SOL    HW212744   1.636   3.485   2.113  0.6133 -1.0271  1.2258
 3243SOL    HW312745   1.678   3.607   2.191 -0.0144  1.1784 -1.7243
 3243SOL    MW412746   1.695   3.545   2.133 -0.0416 -0.0445  0.3526
 3244SOL     OW12747   3.096   2.876   3.881  0.0111  0.9283  0.2897
 3244SOL    HW212748   3.095   2.901   3.789 -0.7535 -0.5044 -0.1193
 3244SOL    HW312749   3.010   2.902   3.915  0.4865  1.9510  0.7674
 3244SOL    MW412750   3.084   2.883   3.874  0.1113  0.4985  0.0229
 3245SOL     OW12751   2.356   4.770   4.559  0.2457 -0.2636  0.1507
 3245SOL    HW212752   2.345   4.863   4.579  2.4597  0.0639  0.0990
 3245SOL    HW312753   2.358   4.728   4.644  2.2589  0.1759  0.3737
 3245SOL    MW412754   2.354   4.777   4.573 -0.1513 -0.2472 -0.1956
 3246SOL     OW12755   1.363   2.132   2.691 -0.0038  0.0916 -0.6314
 3246SOL    HW212756   1.269   2.125   2.672 -0.0745 -1.5421  0.0794
 3246SOL    HW312757   1.385   2.222   2.670 -1.1720 -0.1367 -3.2238
 3246SOL    MW412758   1.353   2.143   2.686 -0.1589  0.1911 -0.2228
 3247SOL     OW12759   1.527   2.070   2.405  0.0671  0.1415 -0.0296
 3247SOL    HW212760   1.571   2.112   2.478 -3.1104  3.3100  0.3217
 3247SOL    HW312761   1.464   2.011   2.445  0.6687 -0.7466 -0.3650
 3247SOL    MW412762   1.525   2.068   2.420  0.3561 -0.0299  0.4504
 3248SOL     OW12763   0.742   6.114   5.151  0.5350 -0.4998 -0.4629
 3248SOL    HW212764   0.805   6.154   5.091  0.9890  0.5125  0.6317
 3248SOL    HW312765   0.794   6.050   5.200  0.5935 -0.0527  0.0670
 3248SOL    MW412766   0.757   6.111   5.150  0.5863  0.6991 -0.6002
 3249SOL     OW12767   3.276   4.174   0.590 -0.1459 -0.2490 -0.0341
 3249SOL    HW212768   3.250   4.188   0.681  0.9429  0.8935  0.1335
 3249SOL    HW312769   3.269   4.079   0.577 -4.6670 -0.1206 -0.1894
 3249SOL    MW412770   3.272   4.163   0.600  0.6165  0.4084  0.1683
 3250SOL     OW12771   6.149   1.950   5.157 -0.1299 -0.2488 -0.3296
 3250SOL    HW212772   6.058   1.971   5.178  0.1921  0.7960  0.0989
 3250SOL    HW312773   6.176   1.889   5.226 -0.7554 -1.2333 -0.9503
 3250SOL    MW412774   6.141   1.945   5.169  0.0111 -0.5218  0.3274
 3251SOL     OW12775   4.894   3.781   3.877  0.4250  0.1090 -0.5140
 3251SOL    HW212776   4.826   3.714   3.871  1.7197 -1.2242 -0.8957
 3251SOL    HW312777   4.850   3.855   3.919 -1.1305 -0.8592 -0.3165
 3251SOL    MW412778   4.879   3.782   3.882 -0.3518  0.5674  0.2506
 3252SOL     OW12779   5.117   4.655   4.426 -0.1637 -0.4091  0.2439
 3252SOL    HW212780   5.092   4.563   4.418 -0.7842 -0.6752  3.6337
 3252SOL    HW312781   5.057   4.701   4.368 -1.3962 -1.9995  0.1924
 3252SOL    MW412782   5.105   4.649   4.418  0.1483 -0.6977  0.2810
 3253SOL     OW12783   2.297   5.277   6.400  0.1947 -0.0183 -0.0287
 3253SOL    HW212784   2.225   5.226   6.437 -0.3849 -0.5798 -1.8065
 3253SOL    HW312785   2.375   5.244   6.444 -0.2720 -1.8387 -0.4383
 3253SOL    MW412786   2.298   5.266   6.410 -0.0901 -0.0081  0.0333
 3254SOL     OW12787   4.190   0.998   1.344  0.0394  0.0229 -0.0819
 3254SOL    HW212788   4.256   1.033   1.403 -1.4545  0.1935  1.5608
 3254SOL    HW312789   4.166   0.913   1.382 -1.1659  0.2705 -0.2453
 3254SOL    MW412790   4.196   0.991   1.357  0.1840  0.2360 -0.8611
 3255SOL     OW12791   5.873   2.460   2.388  0.0914  0.4004 -0.0152
 3255SOL    HW212792   5.941   2.401   2.355  0.0266  0.4955 -0.3226
 3255SOL    HW312793   5.799   2.446   2.329  0.2519  1.1686 -0.3964
 3255SOL    MW412794   5.872   2.450   2.376 -0.1928 -0.3037  0.2987
 3256SOL     OW12795   5.904   2.642   0.556 -0.1265  0.0951  0.1280
 3256SOL    HW212796   5.860   2.633   0.640 -0.9002 -2.1072 -0.4412
 3256SOL    HW312797   5.901   2.736   0.537  0.1653  0.6744  2.5549
 3256SOL    MW412798   5.898   2.653   0.564 -0.3381 -0.2746  0.3016
 3257SOL     OW12799   5.440   0.975   2.529  0.2194 -0.1572  0.7557
 3257SOL    HW212800   5.530   0.943   2.532  0.9961  1.3987 -2.1292
 3257SOL    HW312801   5.414   0.966   2.438 -2.5144 -0.3158  1.4632
 3257SOL    MW412802   5.449   0.970   2.518 -0.3620 -0.0412  0.4911
 3258SOL     OW12803   0.976   4.227   6.330  0.2105 -0.3783 -0.0685
 3258SOL    HW212804   1.048   4.204   6.271  0.0088 -0.7803 -0.1669
 3258SOL    HW312805   0.990   4.319   6.351 -0.5044  0.1576 -1.8492
 3258SOL    MW412806   0.988   4.236   6.325 -0.2532  0.3798  0.1190
 3259SOL     OW12807   1.010   0.128   3.831  0.4339 -0.5900  0.0637
 3259SOL    HW212808   0.982   0.057   3.773  1.0912 -0.6477 -0.1906
 3259SOL    HW312809   1.089   0.163   3.789 -0.0942  0.5493 -0.0246
 3259SOL    MW412810   1.017   0.123   3.817  0.1129  0.3436 -0.3129
 3260SOL     OW12811   2.473   0.978   5.633 -0.1352 -0.2278  0.0118
 3260SOL    HW212812   2.547   0.928   5.667  0.1813  0.2460  0.0425
 3260SOL    HW312813   2.448   0.933   5.552  2.5603  1.6175 -2.0184
 3260SOL    MW412814   2.479   0.966   5.627 -0.0612 -0.4362  0.4405
 3261SOL     OW12815   3.541   5.096   3.146  0.2450  0.0229  0.2127
 3261SOL    HW212816   3.546   5.154   3.070  0.6598 -1.0417 -0.5912
 3261SOL    HW312817   3.622   5.113   3.194 -0.6239  1.6873  1.1918
 3261SOL    MW412818   3.553   5.106   3.142 -0.1730 -0.0058 -0.0378
 3262SOL     OW12819   1.707   5.421   1.797  0.1270 -0.1993 -0.9520
 3262SOL    HW212820   1.725   5.461   1.882 -0.2692  0.3721 -1.1328
 3262SOL    HW312821   1.774   5.353   1.788  0.0115 -0.4468 -0.0680
 3262SOL    MW412822   1.718   5.417   1.807 -0.0548  0.4806  0.2466
 3263SOL     OW12823   2.959   6.339   2.491  0.0684 -0.1627 -0.1429
 3263SOL    HW212824   3.043   6.363   2.452 -0.3389  0.8978 -0.4113
 3263SOL    HW312825   2.918   6.423   2.513 -0.6602 -0.6779  0.5448
 3263SOL    MW412826   2.965   6.354   2.489 -0.3776 -0.0710 -0.5436
 3264SOL     OW12827   2.117   0.512   6.342  0.2073 -0.5715  0.8479
 3264SOL    HW212828   2.178   0.557   6.400  0.7100 -1.7012  1.2206
 3264SOL    HW312829   2.173   0.461   6.283 -0.2999  0.3023 -0.4497
 3264SOL    MW412830   2.132   0.511   6.342 -0.2973 -0.0926  0.0418
 3265SOL     OW12831   2.087   5.709   3.265  0.0042 -0.2609 -0.7043
 3265SOL    HW212832   2.124   5.763   3.195 -2.5022  0.6757 -1.4035
 3265SOL    HW312833   2.085   5.767   3.341  2.3105 -1.1420  0.1240
 3265SOL    MW412834   2.092   5.724   3.266 -0.6194 -0.2452  0.1015
 3266SOL     OW12835   0.196   3.578   1.496 -0.2419 -0.1722 -0.1783
 3266SOL    HW212836   0.283   3.583   1.535  0.1855 -1.8597 -0.8620
 3266SOL    HW312837   0.138   3.555   1.568 -0.3129  1.7738  0.4574
 3266SOL    MW412838   0.199   3.576   1.511  0.1540 -0.4382  0.3524
 3267SOL     OW12839   5.580   2.620   4.357 -0.3764  0.4600  0.0295
 3267SOL    HW212840   5.585   2.624   4.261 -0.4045 -1.3545 -0.0713
 3267SOL    HW312841   5.671   2.617   4.386 -0.3414 -2.0253 -0.1473
 3267SOL    MW412842   5.593   2.620   4.348  0.1818  0.8602  0.0949
 3268SOL     OW12843   4.727   3.623   2.323 -0.4410  0.4894 -0.2300
 3268SOL    HW212844   4.792   3.671   2.374 -1.0053  2.2177 -1.0656
 3268SOL    HW312845   4.779   3.563   2.269  0.2960  0.3110  0.6471
 3268SOL    MW412846   4.742   3.621   2.323 -0.2086 -0.6474  0.3296
 3269SOL     OW12847   0.340   1.677   0.169  0.2916  0.3502 -0.1800
 3269SOL    HW212848   0.265   1.619   0.152  0.2410  0.6493 -1.0182
 3269SOL    HW312849   0.302   1.752   0.215  0.1909  0.1938 -0.0045
 3269SOL    MW412850   0.325   1.679   0.173  0.0290 -0.5821 -0.1958
 3270SOL     OW12851   1.389   5.422   1.603 -0.3469  0.3060 -0.4425
 3270SOL    HW212852   1.297   5.414   1.576 -0.0109 -1.3467 -1.2048
 3270SOL    HW312853   1.411   5.336   1.640  1.3328  0.1312 -1.7285
 3270SOL    MW412854   1.380   5.410   1.605  0.0978  0.7535 -0.1780
 3271SOL     OW12855   2.113   0.675   5.857  0.3761 -0.5966  0.5134
 3271SOL    HW212856   2.145   0.714   5.939 -0.9905 -1.4659  1.5156
 3271SOL    HW312857   2.050   0.608   5.886 -1.1130 -0.0488 -1.2640
 3271SOL    MW412858   2.109   0.672   5.872 -0.1076  0.3755 -0.0379
 3272SOL     OW12859   6.135   3.363   3.318  0.2783  0.2755 -0.1315
 3272SOL    HW212860   6.192   3.311   3.262 -1.1822 -2.2542  0.5673
 3272SOL    HW312861   6.051   3.365   3.271 -0.2685  0.2192  0.8146
 3272SOL    MW412862   6.131   3.357   3.304  0.3754  0.0771  0.2437
 3273SOL     OW12863   0.882   0.059   1.847  0.8017  0.2723  0.1446
 3273SOL    HW212864   0.961   0.023   1.808  0.7469  0.4236 -0.1094
 3273SOL    HW312865   0.841   0.109   1.776 -0.3984 -1.1721 -0.2255
 3273SOL    MW412866   0.887   0.061   1.833 -0.2421  0.3624  0.0577
 3274SOL     OW12867   2.745   1.822   0.626 -0.0499 -0.4207  0.1898
 3274SOL    HW212868   2.776   1.742   0.585 -1.3077 -0.5856 -0.4802
 3274SOL    HW312869   2.761   1.809   0.719 -0.0712 -1.3831  0.0694
 3274SOL    MW412870   2.751   1.810   0.633  0.4704  0.4132  0.1066
 3275SOL     OW12871   1.171   4.458   0.761  0.1428  0.2420 -0.2191
 3275SOL    HW212872   1.233   4.479   0.691  0.2171  0.5565 -0.0596
 3275SOL    HW312873   1.191   4.521   0.830  0.8658 -0.8146  0.5697
 3275SOL    MW412874   1.182   4.469   0.761  0.8992 -0.1757 -0.2695
 3276SOL     OW12875   4.510   5.517   0.344  0.0442  0.3942 -0.0848
 3276SOL    HW212876   4.538   5.434   0.305  1.9446  1.3378 -0.8779
 3276SOL    HW312877   4.589   5.550   0.387 -1.2372  0.8093  2.1000
 3276SOL    MW412878   4.524   5.510   0.344 -0.0139 -0.5484 -0.3159
 3277SOL     OW12879   0.721   4.010   4.939 -0.1931 -0.3197  0.3170
 3277SOL    HW212880   0.732   3.963   5.021  1.4653 -0.2603  0.1496
 3277SOL    HW312881   0.780   4.085   4.945  1.0813 -1.0894 -1.4824
 3277SOL    MW412882   0.730   4.014   4.950  0.1790  0.2740  0.0461
 3278SOL     OW12883   0.503   3.800   3.134 -0.4522 -0.8465 -0.2517
 3278SOL    HW212884   0.417   3.762   3.113 -0.6164  0.1217 -1.4406
 3278SOL    HW312885   0.530   3.756   3.214 -2.2769 -0.8419  0.4087
 3278SOL    MW412886   0.495   3.789   3.142 -0.2444 -0.3494  0.2537
 3279SOL     OW12887   4.595   5.438   3.448  0.1477  0.5764 -0.1615
 3279SOL    HW212888   4.587   5.419   3.354  1.3756 -1.7572  0.1455
 3279SOL    HW312889   4.512   5.479   3.471 -0.7276 -0.0647 -1.9741
 3279SOL    MW412890   4.583   5.441   3.438  0.1262 -0.3888  0.1063
 3280SOL     OW12891   3.380   5.701   4.830  0.4086  0.6080  0.1920
 3280SOL    HW212892   3.330   5.781   4.841 -0.7609 -0.0372 -0.3155
 3280SOL    HW312893   3.345   5.641   4.896 -0.5453 -0.3459 -1.1553
 3280SOL    MW412894   3.369   5.703   4.840 -0.5408 -0.1157 -0.4071
 3281SOL     OW12895   0.411   2.750   4.874  0.3899 -0.1831  0.0293
 3281SOL    HW212896   0.391   2.804   4.798 -1.4759  1.9304  1.8432
 3281SOL    HW312897   0.405   2.660   4.843  3.3811  0.5002 -3.1077
 3281SOL    MW412898   0.408   2.746   4.860  0.5718  0.0080  0.3135
 3282SOL     OW12899   2.472   4.710   1.217 -0.4045  0.1467 -0.1508
 3282SOL    HW212900   2.541   4.776   1.210  1.8415 -2.0146  0.1853
 3282SOL    HW312901   2.512   4.630   1.184 -2.7521 -1.2713  0.2059
 3282SOL    MW412902   2.486   4.708   1.211  0.3283 -0.1143 -0.5884
 3283SOL     OW12903   6.046   2.036   3.684 -0.0270 -0.3238 -0.2264
 3283SOL    HW212904   6.069   2.114   3.633  2.0582  0.4614  1.7556
 3283SOL    HW312905   5.960   2.055   3.720  0.2375  0.8687 -0.1839
 3283SOL    MW412906   6.038   2.049   3.682  0.2159  0.3072 -0.3965
 3284SOL     OW12907  -0.001   0.964   6.245 -0.6753  0.2980  0.0069
 3284SOL    HW212908   0.003   0.946   6.339  3.3130 -0.5400 -0.1639
 3284SOL    HW312909  -0.003   1.060   6.239 -0.5956  0.3684  0.9361
 3284SOL    MW412910  -0.001   0.974   6.257  0.0457  0.6634  0.5776
 3285SOL     OW12911   6.021   3.634   4.123  0.1480 -0.4179  0.1227
 3285SOL    HW212912   5.927   3.648   4.131  0.3120 -0.0394  1.7551
 3285SOL    HW312913   6.030   3.542   4.099 -0.6274 -0.8524  1.3745
 3285SOL    MW412914   6.010   3.623   4.121  1.1021 -0.4853 -0.0731
 3286SOL     OW12915   5.403   6.023   1.379  0.7291  0.8930  0.6824
 3286SOL    HW212916   5.391   6.005   1.473 -0.0672 -1.6535  0.1769
 3286SOL    HW312917   5.318   6.053   1.349  1.2400  2.6885  0.9052
 3286SOL    MW412918   5.390   6.024   1.388 -0.2854  0.3030 -0.3278
 3287SOL     OW12919   2.768   1.938   3.643 -0.0922 -0.3088  0.1244
 3287SOL    HW212920   2.786   1.905   3.555  0.3072  0.3118 -0.0367
 3287SOL    HW312921   2.796   1.868   3.701  1.3134 -0.0525 -0.1900
 3287SOL    MW412922   2.774   1.925   3.639  0.1815  0.5006 -0.1008
 3288SOL     OW12923   5.934   4.049   5.151  0.3817 -0.1053  0.0566
 3288SOL    HW212924   5.895   3.993   5.218  1.1758 -1.8254 -0.8477
 3288SOL    HW312925   5.859   4.094   5.111 -0.3385 -0.8742  0.5064
 3288SOL    MW412926   5.919   4.048   5.155  0.3445 -0.0216 -0.2197
 3289SOL     OW12927   0.845   2.113   1.869  0.2604  0.2552  0.2039
 3289SOL    HW212928   0.901   2.180   1.830  1.3576  0.6196  2.2346
 3289SOL    HW312929   0.766   2.160   1.895 -0.2388  0.1215 -1.0486
 3289SOL    MW412930   0.842   2.128   1.867 -0.1634  0.7080 -0.7721
 3290SOL     OW12931   0.860   4.980   2.041 -0.2817  0.0704  0.1154
 3290SOL    HW212932   0.919   4.905   2.029 -0.8845 -0.5767  1.0333
 3290SOL    HW312933   0.918   5.054   2.054  0.3402 -0.5340  0.8826
 3290SOL    MW412934   0.876   4.980   2.041  0.3646  0.0449  0.0554
 3291SOL     OW12935   2.066   2.200   2.331  0.3757  0.1710  0.0835
 3291SOL    HW212936   2.107   2.244   2.257 -1.7572 -0.3275 -1.4913
 3291SOL    HW312937   2.124   2.126   2.350  1.1723  0.5493 -0.7834
 3291SOL    MW412938   2.079   2.196   2.324  0.3417  0.4516  0.3530
 3292SOL     OW12939   1.367   4.125   3.571 -0.1275 -1.0479  0.0802
 3292SOL    HW212940   1.313   4.068   3.516 -1.8775  1.1004 -0.5731
 3292SOL    HW312941   1.411   4.184   3.509  0.0755 -0.4110  0.8150
 3292SOL    MW412942   1.366   4.125   3.555  0.0684 -0.6575 -0.0563
 3293SOL     OW12943   3.713   4.663   4.288  0.0612  0.6562  0.1967
 3293SOL    HW212944   3.685   4.615   4.366  1.9040 -0.4552  0.2256
 3293SOL    HW312945   3.631   4.689   4.245 -1.0732 -2.2660  0.3375
 3293SOL    MW412946   3.698   4.660   4.292 -0.0493 -0.3112 -0.0188
 3294SOL     OW12947   6.392   3.634   5.283 -0.0835  0.5525  0.3128
 3294SOL    HW212948   6.395   3.606   5.375  0.0776  1.7931  0.6976
 3294SOL    HW312949   6.408   3.554   5.234  0.5114 -0.0148  1.3870
 3294SOL    MW412950   6.395   3.620   5.289 -0.2267  0.4015  0.4317
 3295SOL     OW12951   2.628   1.761   2.578 -0.1604  0.5051  0.2480
 3295SOL    HW212952   2.615   1.845   2.622  0.1907  0.7185 -0.0483
 3295SOL    HW312953   2.668   1.783   2.494 -0.4294  0.0675  0.0002
 3295SOL    MW412954   2.632   1.775   2.573 -0.2414 -0.3465 -0.9025
 3296SOL     OW12955   6.067   3.940   5.570 -0.1872  0.2865  0.0965
 3296SOL    HW212956   6.152   3.925   5.611 -0.0333  1.2556  0.1408
 3296SOL    HW312957   6.064   3.877   5.497  0.5880  0.2929  0.0577
 3296SOL    MW412958   6.077   3.930   5.566 -0.3783 -0.3789 -0.3959
 3297SOL     OW12959   0.127   1.493   0.506  0.0904 -0.3932 -0.4440
 3297SOL    HW212960   0.172   1.437   0.443  0.5636 -0.8697  0.3044
 3297SOL    HW312961   0.148   1.455   0.591 -0.6489  0.1614 -0.0026
 3297SOL    MW412962   0.136   1.480   0.508  0.0048 -0.1675  0.4087
 3298SOL     OW12963   4.653   1.422   0.685 -0.0674 -0.3510  0.1532
 3298SOL    HW212964   4.564   1.448   0.661  0.3410 -0.1009 -1.1714
 3298SOL    HW312965   4.707   1.448   0.611  0.7926 -2.4900 -0.0603
 3298SOL    MW412966   4.649   1.429   0.672  0.4141 -0.1238  0.1283
 3299SOL     OW12967   2.869   1.614   1.764 -0.5518  0.3144 -0.0595
 3299SOL    HW212968   2.957   1.636   1.733 -0.6512 -0.6479 -1.0808
 3299SOL    HW312969   2.830   1.699   1.788 -0.2015  1.0540 -1.9184
 3299SOL    MW412970   2.875   1.628   1.763  0.2135 -0.3815 -0.6384
 3300SOL     OW12971   6.214   4.649   0.384 -0.1090 -0.6778  0.5411
 3300SOL    HW212972   6.256   4.682   0.305 -1.0120 -0.8079 -0.0027
 3300SOL    HW312973   6.267   4.574   0.410  0.4422 -0.3732  0.3212
 3300SOL    MW412974   6.227   4.644   0.377 -0.0208  0.2374 -0.4884
 3301SOL     OW12975   2.426   4.129   3.986  0.5071 -0.7631 -0.3877
 3301SOL    HW212976   2.408   4.063   4.053  0.5836 -1.5130 -1.0993
 3301SOL    HW312977   2.349   4.185   3.987  1.1637  0.2040  1.4252
 3301SOL    MW412978   2.414   4.128   3.995 -0.2183  0.4389 -0.3728
 3302SOL     OW12979   6.313   3.745   3.859 -0.0961 -0.1319 -0.1476
 3302SOL    HW212980   6.274   3.660   3.837  0.2300 -0.3348  0.0412
 3302SOL    HW312981   6.257   3.780   3.927  0.0702 -0.4466  0.1594
 3302SOL    MW412982   6.301   3.738   3.865 -0.4733  0.0688 -0.2833
 3303SOL     OW12983   3.091   1.984   2.721  0.1784  0.2853  0.2189
 3303SOL    HW212984   3.146   1.948   2.651 -0.8719  0.5766 -0.7882
 3303SOL    HW312985   3.117   2.076   2.728  1.5865 -0.1746  1.5341
 3303SOL    MW412986   3.102   1.991   2.713 -0.2706  0.1353 -0.8795
 3304SOL     OW12987   6.014   2.121   5.827 -0.1516  0.0352  0.2493
 3304SOL    HW212988   5.940   2.080   5.870  0.7799 -1.6521  0.3127
 3304SOL    HW312989   6.090   2.096   5.879  0.6811  0.1889 -0.8505
 3304SOL    MW412990   6.015   2.113   5.839  0.0393  0.3001 -0.7735
 3305SOL     OW12991   5.684   3.619   5.587  0.2591 -0.4644 -0.2824
 3305SOL    HW212992   5.645   3.539   5.623 -0.9386  0.8454  1.5792
 3305SOL    HW312993   5.617   3.654   5.528  0.9304 -0.9854 -1.3838
 3305SOL    MW412994   5.670   3.613   5.584  0.0762  0.1753  0.2717
 3306SOL     OW12995   2.340   2.604   3.642  0.0987 -1.0634  0.2635
 3306SOL    HW212996   2.264   2.626   3.588 -0.9697 -0.7999  1.7999
 3306SOL    HW312997   2.327   2.513   3.666  0.9918 -1.4262 -0.5316
 3306SOL    MW412998   2.328   2.595   3.638 -0.1602 -0.0983  0.4982
 3307SOL     OW12999   3.829   5.192   4.474  0.2544  0.3269 -0.0608
 3307SOL    HW213000   3.827   5.100   4.447  1.3075  0.4898 -0.7690
 3307SOL    HW313001   3.754   5.232   4.429  0.3168 -0.0093 -0.4735
 3307SOL    MW413002   3.819   5.185   4.464  0.5052  0.1165  0.5690
 3308SOL     OW13003   0.686   5.395   5.315  0.4241 -0.3395  0.0261
 3308SOL    HW213004   0.599   5.377   5.350  0.0406  0.9075 -0.2659
 3308SOL    HW313005   0.676   5.385   5.220  0.3988  0.6229 -0.0737
 3308SOL    MW413006   0.673   5.391   5.307  0.0986 -0.5339  0.2601
 3309SOL     OW13007   5.151   5.082   3.779 -0.4284  0.8345  0.4504
 3309SOL    HW213008   5.143   4.994   3.814 -0.3451  0.8600  0.5338
 3309SOL    HW313009   5.088   5.134   3.829  0.5642  1.1340  1.4281
 3309SOL    MW413010   5.142   5.077   3.790  0.0305 -0.6478 -0.0139
 3310SOL     OW13011   1.079   1.502   1.919  0.0207 -0.2030  0.1759
 3310SOL    HW213012   1.097   1.555   1.997  0.4934  1.8410 -1.2518
 3310SOL    HW313013   0.983   1.499   1.914 -0.0096 -0.0638  0.6265
 3310SOL    MW413014   1.068   1.508   1.929  0.0272  0.2073 -0.0329
 3311SOL     OW13015   0.339   1.578   5.733 -0.6592  0.0396  0.0401
 3311SOL    HW213016   0.297   1.501   5.771 -1.0543  0.1125 -0.2463
 3311SOL    HW313017   0.419   1.589   5.784 -0.8830 -0.2254  0.4518
 3311SOL    MW413018   0.344   1.569   5.745 -0.7627  0.1113  0.1187
 3312SOL     OW13019   4.604   5.661   0.927 -0.5171  0.0580  0.0917
 3312SOL    HW213020   4.570   5.720   0.859  0.0814  0.5638  0.2219
 3312SOL    HW313021   4.667   5.715   0.976 -1.2356 -0.1865  1.3097
 3312SOL    MW413022   4.608   5.676   0.924 -0.1861  0.3111 -0.1753
 3313SOL     OW13023   2.588   3.246   1.023  0.0524  0.4209 -0.2858
 3313SOL    HW213024   2.596   3.151   1.027 -0.6611  0.3534 -0.3364
 3313SOL    HW313025   2.506   3.266   1.069  1.4668  1.2485  2.0205
 3313SOL    MW413026   2.578   3.236   1.029  0.1342  0.2206 -0.4171
 3314SOL     OW13027   4.620   0.321   4.082 -0.0692 -0.4694 -0.1352
 3314SOL    HW213028   4.650   0.302   3.993 -1.4868 -0.9599 -0.5320
 3314SOL    HW313029   4.539   0.271   4.091 -1.0035  1.1300  0.7243
 3314SOL    MW413030   4.613   0.312   4.071 -0.5371  0.8008 -0.1710
 3315SOL     OW13031   0.592   2.106   4.521  0.5736  0.0590 -0.1447
 3315SOL    HW213032   0.525   2.041   4.541  1.4945 -0.9944 -0.3506
 3315SOL    HW313033   0.547   2.190   4.524  0.0152 -0.2159  3.6026
 3315SOL    MW413034   0.578   2.108   4.524 -1.0309 -0.3285  0.3011
 3316SOL     OW13035   5.062   4.888   5.804 -0.3013  0.1033  0.0586
 3316SOL    HW213036   4.978   4.868   5.762  0.1695  1.4313 -1.6304
 3316SOL    HW313037   5.046   4.873   5.897 -2.0903 -0.7051 -0.3269
 3316SOL    MW413038   5.049   4.883   5.810  0.2011 -0.0165 -0.1127
 3317SOL     OW13039   0.748   5.436   0.468  0.3449 -0.6008 -0.0486
 3317SOL    HW213040   0.771   5.367   0.529 -1.0557 -0.7609  0.3315
 3317SOL    HW313041   0.692   5.393   0.403  1.1855 -0.2681 -1.0231
 3317SOL    MW413042   0.744   5.421   0.467  0.3686  0.5084  0.2626
 3318SOL     OW13043   3.293   0.356   3.685  0.3777 -0.2118  0.3659
 3318SOL    HW213044   3.312   0.449   3.672  1.2097 -0.5177 -0.7547
 3318SOL    HW313045   3.327   0.313   3.607  1.0483 -1.6037  1.3793
 3318SOL    MW413046   3.300   0.362   3.673 -0.1736 -0.0353  0.3052
 3319SOL     OW13047   6.328   1.768   3.268  0.0947  0.0467 -0.0031
 3319SOL    HW213048   6.308   1.827   3.340 -0.3173  0.2493 -0.2800
 3319SOL    HW313049   6.261   1.786   3.202  0.5421 -0.0450 -0.4943
 3319SOL    MW413050   6.317   1.778   3.269 -0.1373  0.5208  0.0344
 3320SOL     OW13051   0.274   0.233   1.607  0.0967 -0.0115  0.8457
 3320SOL    HW213052   0.262   0.251   1.514 -1.5306 -1.7352  0.6756
 3320SOL    HW313053   0.271   0.319   1.649  0.5126  0.7587 -0.6247
 3320SOL    MW413054   0.272   0.247   1.600  0.8255  0.2372  0.5858
 3321SOL     OW13055   3.345   1.788   3.929 -0.4524 -0.7369  0.3783
 3321SOL    HW213056   3.396   1.855   3.975 -0.0309 -0.6433 -0.2104
 3321SOL    HW313057   3.339   1.821   3.839 -1.6185 -0.7088  0.4531
 3321SOL    MW413058   3.351   1.801   3.923  0.2850  0.2863  0.1037
 3322SOL     OW13059   2.618   2.945   1.070  0.1706 -0.5661  0.0250
 3322SOL    HW213060   2.689   2.886   1.044  1.3050  0.7779 -0.0637
 3322SOL    HW313061   2.544   2.887   1.089  1.1629 -1.9853 -0.2727
 3322SOL    MW413062   2.617   2.930   1.069  0.1978 -0.5538 -0.1770
 3323SOL     OW13063   5.373   5.493   5.682 -0.5228 -0.5398  0.0183
 3323SOL    HW213064   5.441   5.430   5.706 -1.6777 -0.9332  2.5473
 3323SOL    HW313065   5.377   5.560   5.750  0.9178  2.4996 -2.7851
 3323SOL    MW413066   5.383   5.494   5.694 -0.0058  0.3041  0.2019
 3324SOL     OW13067   3.538   4.813   0.722 -0.5995 -0.2013  0.4542
 3324SOL    HW213068   3.605   4.829   0.788 -0.5121  1.2440  0.0496
 3324SOL    HW313069   3.465   4.869   0.747  0.2543  2.1563 -1.8173
 3324SOL    MW413070   3.537   4.822   0.734 -0.3635  0.1278  0.0007
 3325SOL     OW13071   5.073   3.295   4.414  0.1646  0.6211  0.1969
 3325SOL    HW213072   5.083   3.385   4.383  0.8468  0.4501 -0.0792
 3325SOL    HW313073   5.159   3.255   4.402 -1.0357 -1.3417 -3.7048
 3325SOL    MW413074   5.086   3.302   4.408 -0.4257 -0.2842  0.0559
 3326SOL     OW13075   0.619   3.649   2.596  0.0887 -0.1419  0.1456
 3326SOL    HW213076   0.643   3.740   2.578  1.0855 -0.7719 -2.0017
 3326SOL    HW313077   0.688   3.598   2.553 -0.9865 -1.9253  0.4799
 3326SOL    MW413078   0.631   3.654   2.588 -0.0906 -0.2360 -0.0027
 3327SOL     OW13079   2.365   0.573   1.478 -0.7038 -0.1171  0.1935
 3327SOL    HW213080   2.275   0.549   1.500 -0.5120 -1.5352 -0.4387
 3327SOL    HW313081   2.414   0.562   1.560 -0.7257 -1.4655  0.0457
 3327SOL    MW413082   2.360   0.568   1.491  0.2292 -0.7219 -0.0911
 3328SOL     OW13083   2.373   0.438   4.151 -0.0591 -0.5565 -0.3389
 3328SOL    HW213084   2.307   0.450   4.083 -2.1815  1.8095  1.8891
 3328SOL    HW313085   2.336   0.482   4.228  3.3658 -0.7036  1.5943
 3328SOL    MW413086   2.360   0.446   4.152  0.1543  0.0525  0.4490
 3329SOL     OW13087   4.834   5.986   0.879 -0.1632  0.1347 -0.0359
 3329SOL    HW213088   4.775   6.049   0.919 -1.6683  0.3028 -2.3395
 3329SOL    HW313089   4.846   5.918   0.946  0.2571  2.0245  1.9131
 3329SOL    MW413090   4.828   5.985   0.893 -0.2537  0.9309 -0.0022
 3330SOL     OW13091   4.689   1.404   2.283 -0.5722 -0.3598  0.6049
 3330SOL    HW213092   4.780   1.380   2.300 -0.2451 -0.8376 -1.4964
 3330SOL    HW313093   4.693   1.498   2.264 -0.1609 -0.6996 -1.2511
 3330SOL    MW413094   4.702   1.413   2.283 -0.1490  0.2787  0.1481
 3331SOL     OW13095   0.301   0.162   3.166 -0.0116  0.2271  0.6501
 3331SOL    HW213096   0.358   0.214   3.110  3.5770 -2.9834  0.8862
 3331SOL    HW313097   0.225   0.143   3.112  1.2936  0.8394 -1.5429
 3331SOL    MW413098   0.299   0.167   3.152  0.0639 -0.6251 -0.4015
 3332SOL     OW13099   6.129   0.562   1.418  0.0774  0.0851 -0.5582
 3332SOL    HW213100   6.037   0.576   1.394 -0.5170 -1.5940  0.5349
 3332SOL    HW313101   6.171   0.538   1.336  0.1406  3.1294 -1.5552
 3332SOL    MW413102   6.122   0.561   1.404 -0.1817 -0.2750  0.1959
 3333SOL     OW13103  -0.003   2.342   2.049  0.2861 -0.1645 -0.3762
 3333SOL    HW213104  -0.034   2.260   2.009 -1.7944  0.9891 -1.2946
 3333SOL    HW313105   0.025   2.395   1.975  1.5536  0.0220  0.2118
 3333SOL    MW413106  -0.003   2.338   2.034  0.2560  0.6228  0.2223
 3334SOL     OW13107   2.565   5.274   2.198 -0.2600  0.2635 -0.5641
 3334SOL    HW213108   2.561   5.178   2.197  0.7446  0.2066 -0.5282
 3334SOL    HW313109   2.630   5.295   2.132 -0.8158  0.9496 -0.8927
 3334SOL    MW413110   2.573   5.264   2.189  0.1206  0.1665  0.0041
 3335SOL     OW13111   3.161   5.530   2.109  0.1547  0.0231  0.3201
 3335SOL    HW213112   3.241   5.555   2.156  1.0889 -2.1275  0.0019
 3335SOL    HW313113   3.186   5.534   2.016 -0.6024  0.8206  0.1368
 3335SOL    MW413114   3.175   5.534   2.103 -0.4432  0.6604 -0.2356
 3336SOL     OW13115   4.369   2.020   3.985 -0.2817 -0.6833  0.5581
 3336SOL    HW213116   4.423   1.969   4.045  0.9748 -0.0793 -0.0332
 3336SOL    HW313117   4.389   1.984   3.898 -0.4111 -0.0832  0.2748
 3336SOL    MW413118   4.379   2.008   3.981 -0.1233 -0.4065  0.1916
 3337SOL     OW13119   1.974   4.552   1.643 -0.3943 -0.0889 -0.2336
 3337SOL    HW213120   1.930   4.532   1.726  1.6769  1.2761  1.2824
 3337SOL    HW313121   2.008   4.468   1.613 -0.0523 -0.4244  1.0211
 3337SOL    MW413122   1.973   4.538   1.650  0.4420 -0.1403  0.8466
 3338SOL     OW13123   3.403   5.260   5.940  0.2185  0.1357  0.0865
 3338SOL    HW213124   3.459   5.310   5.881  1.5294 -0.9380  0.3671
 3338SOL    HW313125   3.438   5.171   5.936 -0.6219 -0.2727  1.3284
 3338SOL    MW413126   3.415   5.255   5.932 -0.0607  0.1322 -0.2981
 3339SOL     OW13127   1.142   5.139   4.029  0.0448 -0.1776 -0.0095
 3339SOL    HW213128   1.127   5.055   4.073 -0.9668 -0.0801 -0.1405
 3339SOL    HW313129   1.121   5.121   3.937 -0.4893  0.2859  0.0174
 3339SOL    MW413130   1.137   5.125   4.023  0.5053 -0.5016 -0.1218
 3340SOL     OW13131   1.567   2.910   5.619  0.4480 -0.2638  0.1391
 3340SOL    HW213132   1.640   2.862   5.579 -1.7229 -1.8052 -2.2566
 3340SOL    HW313133   1.490   2.857   5.600 -1.4419  1.6331  1.9792
 3340SOL    MW413134   1.567   2.896   5.612 -0.1080 -0.2745  0.0389
 3341SOL     OW13135   1.158   0.669   3.101  0.1463  0.7214  0.0010
 3341SOL    HW213136   1.222   0.736   3.126  0.1938  0.4236  0.7004
 3341SOL    HW313137   1.142   0.684   3.008  0.5589  1.3654  0.0324
 3341SOL    MW413138   1.165   0.680   3.092 -0.1188  0.2634  0.3804
 3342SOL     OW13139   3.230   3.587   5.458 -0.2485 -0.0623 -0.4550
 3342SOL    HW213140   3.186   3.516   5.505 -1.0269 -0.0695 -1.1564
 3342SOL    HW313141   3.323   3.564   5.462 -0.4749 -1.0676 -0.5657
 3342SOL    MW413142   3.236   3.575   5.464 -0.6007 -0.2353  0.4811
 3343SOL     OW13143   3.327   5.536   3.433 -0.4041 -0.0174 -0.7232
 3343SOL    HW213144   3.365   5.509   3.350  1.8664 -0.9404  0.5287
 3343SOL    HW313145   3.272   5.463   3.460  2.4508 -1.8069  0.6692
 3343SOL    MW413146   3.325   5.523   3.426  0.2347 -1.0652  0.2909
 3344SOL     OW13147   3.517   0.942   4.904 -0.3995  0.0462  0.5777
 3344SOL    HW213148   3.478   1.029   4.899 -0.0983  0.1018 -1.5250
 3344SOL    HW313149   3.609   0.956   4.883 -0.5961 -0.9145 -1.0560
 3344SOL    MW413150   3.524   0.956   4.901  0.3218  0.2280  0.0149
 3345SOL     OW13151   0.786   4.334   1.555 -0.1396  0.2572 -0.2988
 3345SOL    HW213152   0.735   4.373   1.483 -0.2951 -0.6420 -0.6849
 3345SOL    HW313153   0.729   4.343   1.632  0.5143  2.3204  0.0059
 3345SOL    MW413154   0.771   4.340   1.556 -0.1097 -0.4771 -0.1766
 3346SOL     OW13155   5.469   0.670   2.314  0.0245  0.2339 -0.1370
 3346SOL    HW213156   5.424   0.667   2.398 -1.0523 -0.6137 -0.7173
 3346SOL    HW313157   5.549   0.720   2.331 -1.0212  1.6259  0.9756
 3346SOL    MW413158   5.474   0.677   2.327  0.5978  0.4432  0.0489
 3347SOL     OW13159   1.583   3.681   6.308  0.4894 -0.6505 -1.2604
 3347SOL    HW213160   1.559   3.750   6.371  4.5074  0.8253 -1.0323
 3347SOL    HW313161   1.542   3.602   6.342 -1.0768  0.8909  0.7148
 3347SOL    MW413162   1.575   3.680   6.321 -0.2525 -0.1450  0.2971
 3348SOL     OW13163   4.910   3.432   4.104  0.0711  0.1403 -0.4452
 3348SOL    HW213164   4.897   3.355   4.160 -0.2195  0.9906  0.6957
 3348SOL    HW313165   4.825   3.477   4.106 -0.0066  0.0791 -1.7574
 3348SOL    MW413166   4.897   3.428   4.112  0.3390  0.3858 -0.1447
 3349SOL     OW13167   1.641   3.021   2.651 -0.5990 -0.3443 -0.0730
 3349SOL    HW213168   1.692   3.101   2.662 -0.0306 -0.7187  0.0072
 3349SOL    HW313169   1.607   3.027   2.562 -0.8433  0.1487  0.0502
 3349SOL    MW413170   1.643   3.033   2.641  0.3720 -0.2784 -0.8130
 3350SOL     OW13171   2.382   4.360   2.913  0.3092  0.2690 -0.3835
 3350SOL    HW213172   2.431   4.425   2.862 -0.4656  0.4628 -0.9022
 3350SOL    HW313173   2.364   4.403   2.996  1.0010  0.1958 -0.1857
 3350SOL    MW413174   2.386   4.374   2.917 -0.2364 -0.2148 -0.9416
 3351SOL     OW13175   5.491   0.667   1.402 -0.1360 -0.6358 -0.3556
 3351SOL    HW213176   5.579   0.629   1.402  0.4944  0.7345  0.6171
 3351SOL    HW313177   5.489   0.725   1.325  0.3104  0.3490  0.3492
 3351SOL    MW413178   5.503   0.670   1.392  0.3277  0.4743  0.3403
 3352SOL     OW13179   4.306   4.584   2.380  0.3879  0.0261  0.7173
 3352SOL    HW213180   4.240   4.516   2.394  0.6786 -0.6196 -0.9441
 3352SOL    HW313181   4.384   4.537   2.350  0.3762  1.1364 -1.1516
 3352SOL    MW413182   4.308   4.569   2.378  0.0601  0.4469 -0.6018
 3353SOL     OW13183   4.882   5.547   5.720  0.1975 -0.2538 -0.1921
 3353SOL    HW213184   4.856   5.460   5.689  2.6517 -2.3596  3.0330
 3353SOL    HW313185   4.956   5.571   5.665 -1.2382  0.4691 -1.8992
 3353SOL    MW413186   4.888   5.539   5.709 -0.1456  0.1464  0.3010
 3354SOL     OW13187   0.893   2.392   3.004  0.2791 -0.2568  0.4180
 3354SOL    HW213188   0.943   2.311   3.006 -1.8853 -1.6893  0.1244
 3354SOL    HW313189   0.805   2.365   2.977 -0.7038  2.1039  1.0129
 3354SOL    MW413190   0.888   2.378   3.000 -0.0317  0.1701  0.2264
 3355SOL     OW13191   4.408   0.131   4.184  0.3234 -0.0309 -0.7688
 3355SOL    HW213192   4.431   0.049   4.140  0.5228  0.3471 -1.3759
 3355SOL    HW313193   4.315   0.123   4.202  0.3937 -0.5020 -0.5812
 3355SOL    MW413194   4.399   0.119   4.181 -0.1346 -0.1374 -0.3418
 3356SOL     OW13195   2.940   0.738   6.335  0.1727 -0.2918  0.3073
 3356SOL    HW213196   2.962   0.716   6.245  0.5546 -2.1344  0.8097
 3356SOL    HW313197   2.970   0.828   6.346  1.9441 -0.7027 -0.8419
 3356SOL    MW413198   2.947   0.747   6.325 -0.5778  0.4639  0.0744
 3357SOL     OW13199   4.409   3.897   0.609  0.2951 -0.5732  0.0186
 3357SOL    HW213200   4.428   3.952   0.685 -0.5196  0.3356 -0.4182
 3357SOL    HW313201   4.445   3.811   0.632  0.0328 -0.3215  1.4420
 3357SOL    MW413202   4.416   3.893   0.622 -0.0389  1.3562 -0.0827
 3358SOL     OW13203   1.495   1.757   2.181  0.1874  0.6211  0.4784
 3358SOL    HW213204   1.525   1.713   2.260  1.8463  2.1796  0.7919
 3358SOL    HW313205   1.570   1.809   2.152 -0.7491  0.9935 -1.4813
 3358SOL    MW413206   1.509   1.758   2.188  0.2610 -0.0529  0.2896
 3359SOL     OW13207   0.102   0.752   4.424  0.2054 -0.3537 -0.2083
 3359SOL    HW213208   0.021   0.801   4.421  0.7642  0.5328 -1.3325
 3359SOL    HW313209   0.128   0.754   4.517  0.4597  1.9179 -0.2734
 3359SOL    MW413210   0.095   0.758   4.436  0.7069 -0.5276 -0.0530
 3360SOL     OW13211   1.445   0.688   0.069  0.1761  0.0170  0.2049
 3360SOL    HW213212   1.385   0.730   0.008  0.3413  0.3020  0.2391
 3360SOL    HW313213   1.436   0.739   0.150 -0.9433 -1.0680  0.8194
 3360SOL    MW413214   1.436   0.700   0.072 -0.2131  0.0954  0.2489
 3361SOL     OW13215   1.899   6.069   3.014  0.0955  0.0146 -0.1367
 3361SOL    HW213216   1.939   6.100   2.933 -0.1234 -1.9646 -1.0580
 3361SOL    HW313217   1.814   6.112   3.018 -1.0655 -1.8208 -2.4213
 3361SOL    MW413218   1.893   6.078   3.004 -0.0349 -0.2161 -0.4253
 3362SOL     OW13219   5.181   0.891   4.566 -0.0754 -0.0331 -0.6080
 3362SOL    HW213220   5.225   0.956   4.512  0.7917 -0.9004 -0.9645
 3362SOL    HW313221   5.140   0.831   4.504  0.6111 -0.8221 -0.3117
 3362SOL    MW413222   5.181   0.891   4.551  0.2936 -0.3553 -0.0885
 3363SOL     OW13223   4.192   1.638   3.685 -0.0411 -0.1990  0.0709
 3363SOL    HW213224   4.116   1.598   3.728  1.2717 -1.3283  1.4629
 3363SOL    HW313225   4.227   1.569   3.629  0.8584 -0.2243  0.6496
 3363SOL    MW413226   4.186   1.624   3.683 -0.4407  0.1227  0.1367
 3364SOL     OW13227   1.011   5.984   6.164  0.1674  0.6254 -0.4302
 3364SOL    HW213228   1.055   5.910   6.205 -3.2118 -1.1306  0.4200
 3364SOL    HW313229   0.999   6.047   6.235  0.8338  0.9235 -0.5689
 3364SOL    MW413230   1.015   5.983   6.179 -0.2260 -0.2340  0.5423
 3365SOL     OW13231   3.795   3.900   2.438 -0.2124  0.2316  0.4250
 3365SOL    HW213232   3.716   3.872   2.390 -1.0679 -0.9061  2.3771
 3365SOL    HW313233   3.864   3.844   2.404 -0.8817 -0.8353  0.7831
 3365SOL    MW413234   3.794   3.889   2.427  0.5615  0.1471 -0.1247
 3366SOL     OW13235   0.328   6.335   5.804  0.8648 -0.4704  0.1777
 3366SOL    HW213236   0.282   6.277   5.743 -1.0283 -1.2915  2.2538
 3366SOL    HW313237   0.367   6.276   5.869 -0.2758  0.4745  1.7912
 3366SOL    MW413238   0.327   6.320   5.805 -0.2537  0.2678 -0.3156
 3367SOL     OW13239   1.327   4.091   1.523  0.0309  0.1597 -0.0147
 3367SOL    HW213240   1.351   4.019   1.465  0.7693 -0.5355  1.1095
 3367SOL    HW313241   1.231   4.095   1.518 -0.1102 -1.5828  0.6684
 3367SOL    MW413242   1.317   4.082   1.515  0.1174 -0.2385 -0.4006
 3368SOL     OW13243   1.165   0.468   1.012  0.1550 -0.5823 -0.9510
 3368SOL    HW213244   1.205   0.515   0.938 -0.4154  1.2191 -0.1610
 3368SOL    HW313245   1.240   0.440   1.065  0.4853  1.5539 -0.2042
 3368SOL    MW413246   1.180   0.471   1.009  0.1704  0.3517 -0.2490
 3369SOL     OW13247   4.626   2.169   3.616 -0.2585 -0.7586  0.3230
 3369SOL    HW213248   4.606   2.256   3.582  3.3876 -0.5828 -1.9279
 3369SOL    HW313249   4.705   2.181   3.668 -0.6416 -2.5113  1.3819
 3369SOL    MW413250   4.634   2.182   3.618  0.0721  0.0446 -0.1746
 3370SOL     OW13251   5.168   0.067   2.205 -0.1841 -0.2306 -0.6836
 3370SOL    HW213252   5.126   0.150   2.184 -0.0417 -0.1018 -0.4602
 3370SOL    HW313253   5.238   0.090   2.265 -1.4929 -0.7785  1.1180
 3370SOL    MW413254   5.172   0.081   2.210 -0.0720 -0.3080  0.3049
 3371SOL     OW13255   1.221   0.378   5.738  0.6153  0.0684  0.1409
 3371SOL    HW213256   1.184   0.297   5.702  0.5476  0.1270  0.0771
 3371SOL    HW313257   1.279   0.411   5.670  2.5835 -1.2053  1.0985
 3371SOL    MW413258   1.223   0.372   5.725  0.3947 -0.2198 -0.4112
 3372SOL     OW13259   3.566   3.927   1.590  0.2158  0.3363 -0.1342
 3372SOL    HW213260   3.598   3.842   1.623 -0.9304 -0.0624  0.0192
 3372SOL    HW313261   3.473   3.927   1.613  0.3900  2.0621  0.7369
 3372SOL    MW413262   3.558   3.916   1.598  0.2888  0.2304  0.2160
 3373SOL     OW13263   5.361   0.653   2.979  0.0739  0.2037  0.0682
 3373SOL    HW213264   5.335   0.567   3.011 -0.8252 -0.6030 -2.6074
 3373SOL    HW313265   5.285   0.709   2.994 -0.8479 -0.4997 -1.6918
 3373SOL    MW413266   5.348   0.649   2.985 -0.3917  0.5399 -0.2705
 3374SOL     OW13267   3.695   5.299   5.306 -0.2066  0.2847  0.2277
 3374SOL    HW213268   3.733   5.217   5.335 -1.2304  0.0822  1.0645
 3374SOL    HW313269   3.649   5.333   5.383 -2.2327  0.1890 -0.8607
 3374SOL    MW413270   3.694   5.293   5.320  0.0319  0.1682 -0.1561
 3375SOL     OW13271   0.710   2.597   1.321 -0.0528  0.5156 -0.3005
 3375SOL    HW213272   0.798   2.604   1.357 -0.7722 -1.0170  2.0157
 3375SOL    HW313273   0.657   2.654   1.376 -0.9505 -0.7295  0.1711
 3375SOL    MW413274   0.715   2.606   1.333  0.0779  0.3579 -0.6245
 3376SOL     OW13275   5.014   2.775   2.456  0.1425  0.1085 -0.6227
 3376SOL    HW213276   5.081   2.772   2.387  1.9620  2.2127  0.8836
 3376SOL    HW313277   5.064   2.767   2.537 -1.7480 -0.5131  0.5431
 3376SOL    MW413278   5.030   2.773   2.457  0.1681  0.1971  0.0433
 3377SOL     OW13279   2.757   0.008   1.014 -0.0109  0.2125  0.0074
 3377SOL    HW213280   2.671  -0.033   1.012  0.5271 -0.9122 -0.7112
 3377SOL    HW313281   2.785  -0.001   1.106  0.8401 -2.7030 -0.4427
 3377SOL    MW413282   2.749   0.001   1.026 -0.1092  0.2994  0.6363
 3378SOL     OW13283   4.501   0.858   3.100  1.3062 -0.0962  0.0004
 3378SOL    HW213284   4.450   0.788   3.140  0.8574 -0.4958 -1.2172
 3378SOL    HW313285   4.472   0.938   3.144  0.4522 -0.4538  0.0986
 3378SOL    MW413286   4.490   0.859   3.111 -0.2376  0.4921  0.2135
 3379SOL     OW13287   4.103   4.065   5.220  0.1754  0.0766  0.2904
 3379SOL    HW213288   4.173   4.019   5.267  1.1110  2.1469  1.0445
 3379SOL    HW313289   4.037   3.997   5.203  2.7286 -2.1875 -1.3558
 3379SOL    MW413290   4.103   4.050   5.224  0.2970 -0.1566  0.0519
 3380SOL     OW13291   3.364   1.360   5.121 -0.3020  0.3684  0.6183
 3380SOL    HW213292   3.457   1.339   5.116 -0.6196 -1.5444  1.7059
 3380SOL    HW313293   3.341   1.345   5.213 -1.8924 -0.1671  0.1692
 3380SOL    MW413294   3.373   1.355   5.133 -0.1928  0.1974 -0.2207
 3381SOL     OW13295   4.115   3.214   5.319  0.3145  0.2612 -0.2002
 3381SOL    HW213296   4.131   3.126   5.284  0.3402  0.4482 -0.6685
 3381SOL    HW313297   4.180   3.225   5.388 -0.7635 -0.7398  1.0377
 3381SOL    MW413298   4.126   3.204   5.323  0.3475 -0.4079  0.2839
 3382SOL     OW13299   6.380   6.247   3.738 -0.1566  0.6588  0.0845
 3382SOL    HW213300   6.446   6.185   3.707 -0.6487  0.5346 -0.7496
 3382SOL    HW313301   6.378   6.235   3.833  1.0054  0.6601  0.1253
 3382SOL    MW413302   6.388   6.238   3.746  0.3558 -0.4785  0.2091
 3383SOL     OW13303   1.979   2.526   2.303 -0.2527 -0.3653 -0.5306
 3383SOL    HW213304   2.023   2.443   2.324 -1.9561 -1.1684  0.0967
 3383SOL    HW313305   1.886   2.505   2.310 -0.7406  1.3441 -1.4697
 3383SOL    MW413306   1.973   2.512   2.307 -0.1023  0.1206  0.0423
 3384SOL     OW13307   1.627   4.782   3.200  0.2554  0.2866  0.3280
 3384SOL    HW213308   1.586   4.795   3.285 -0.2469  0.1809  0.1063
 3384SOL    HW313309   1.565   4.727   3.151  0.6485  0.1412 -0.0209
 3384SOL    MW413310   1.613   4.776   3.205 -0.1623  0.2415 -0.3070
 3385SOL     OW13311   0.167   3.266   5.192 -0.4999  0.2804 -0.4818
 3385SOL    HW213312   0.140   3.254   5.283  1.0546 -1.3442 -0.1708
 3385SOL    HW313313   0.239   3.328   5.196  0.8973 -1.2693 -0.2860
 3385SOL    MW413314   0.173   3.273   5.204 -0.3923 -0.4507 -0.6148
 3386SOL     OW13315   0.165   4.315   0.204 -0.3737 -0.1500  0.0994
 3386SOL    HW213316   0.213   4.243   0.163 -0.8289 -0.0347 -0.6665
 3386SOL    HW313317   0.078   4.280   0.222  0.3742 -0.8331  2.8844
 3386SOL    MW413318   0.160   4.301   0.201 -0.2748 -0.2478  0.4326
 3387SOL     OW13319   6.299   3.229   3.154 -0.3064 -0.2729 -0.0802
 3387SOL    HW213320   6.342   3.149   3.184  0.7690  0.1600 -0.4212
 3387SOL    HW313321   6.365   3.274   3.101 -0.5782  1.2665  0.8092
 3387SOL    MW413322   6.313   3.224   3.151 -0.5994  0.4611  0.0448
 3388SOL     OW13323   3.384   0.071   2.524  0.3695 -0.5699 -0.0694
 3388SOL    HW213324   3.353   0.003   2.464 -0.7589  0.5880 -0.8623
 3388SOL    HW313325   3.342   0.050   2.608 -0.2631 -0.6597 -0.4002
 3388SOL    MW413326   3.374   0.059   2.527  0.1261 -0.2259  0.1134
 3389SOL     OW13327   5.067   0.617   3.682  0.4404 -0.6142  0.6104
 3389SOL    HW213328   4.978   0.604   3.712 -0.5756  2.6375 -0.5568
 3389SOL    HW313329   5.118   0.635   3.761 -0.5037  0.0480  1.0756
 3389SOL    MW413330   5.062   0.618   3.696  0.5132 -0.2536  0.3183
 3390SOL     OW13331   3.210   5.675   5.784  0.3624  0.1386 -0.2566
 3390SOL    HW213332   3.195   5.650   5.875  0.1577  1.1494  0.0024
 3390SOL    HW313333   3.123   5.684   5.747  0.4478 -0.7828 -0.7158
 3390SOL    MW413334   3.197   5.673   5.791 -0.5685  0.3028  0.3119
 3391SOL     OW13335   2.418   1.582   4.290 -0.0146  0.3399 -0.0203
 3391SOL    HW213336   2.355   1.578   4.218  0.0163  1.2537 -0.1135
 3391SOL    HW313337   2.500   1.611   4.249  0.6378 -1.3424  0.0090
 3391SOL    MW413338   2.420   1.586   4.276  0.0556  0.3304  0.1104
 3392SOL     OW13339   5.436   1.267   5.753 -0.2691 -0.0153 -0.0652
 3392SOL    HW213340   5.459   1.359   5.766 -3.0405  0.6850  0.3995
 3392SOL    HW313341   5.503   1.234   5.692 -0.0818  2.7073 -1.4750
 3392SOL    MW413342   5.448   1.275   5.746 -0.2259 -0.4332 -0.1532
 3393SOL     OW13343   1.022   1.544   0.713  0.4295  0.1087 -0.2463
 3393SOL    HW213344   1.010   1.449   0.720 -0.0524  0.1535 -0.4365
 3393SOL    HW313345   1.096   1.563   0.771  1.4929 -0.5863 -1.3287
 3393SOL    MW413346   1.030   1.534   0.722  0.1545 -0.2845 -0.1825
 3394SOL     OW13347   0.153   3.753   4.237  0.0181 -0.0622  0.2683
 3394SOL    HW213348   0.154   3.836   4.284  1.7352  1.5062 -2.2933
 3394SOL    HW313349   0.062   3.723   4.243 -0.4102  1.4306  2.1362
 3394SOL    MW413350   0.141   3.760   4.244 -0.4584  0.0374 -0.0077
 3395SOL     OW13351   1.061   4.884   1.830  0.4242 -0.3769 -0.2341
 3395SOL    HW213352   1.130   4.824   1.802  1.7214  0.2499  1.4799
 3395SOL    HW313353   1.093   4.971   1.805  0.8473  0.0290  1.5275
 3395SOL    MW413354   1.074   4.887   1.823  0.2479  0.6735  0.4780
 3396SOL     OW13355   0.640   4.010   5.676 -0.0300  0.4338  0.2281
 3396SOL    HW213356   0.704   3.987   5.609 -1.1180  1.1945 -1.1294
 3396SOL    HW313357   0.633   4.106   5.670 -1.7109  0.3147 -0.0707
 3396SOL    MW413358   0.648   4.020   5.666 -0.1799  0.0242  0.2916
 3397SOL     OW13359   4.542   0.045   6.081  0.3518 -0.4186 -0.2057
 3397SOL    HW213360   4.596   0.097   6.141  0.2134 -1.3758  0.7851
 3397SOL    HW313361   4.593   0.041   6.000  1.7674 -1.2463  0.6868
 3397SOL    MW413362   4.556   0.051   6.078  0.3330 -0.1501 -0.5954
 3398SOL     OW13363   5.195   4.409   2.356 -0.2874  0.0621  0.0240
 3398SOL    HW213364   5.251   4.347   2.310 -1.3896 -0.9743  0.0331
 3398SOL    HW313365   5.131   4.354   2.402 -1.8939  1.2311 -0.7362
 3398SOL    MW413366   5.194   4.394   2.356 -0.3994 -0.1047  0.2252
 3399SOL     OW13367   3.246   5.004   2.421 -0.3536 -0.2067  0.2239
 3399SOL    HW213368   3.169   5.059   2.436 -1.0940 -1.4052  0.9609
 3399SOL    HW313369   3.313   5.040   2.480  0.1809  1.7173 -1.4048
 3399SOL    MW413370   3.245   5.016   2.431  0.4209 -0.0816  0.5188
 3400SOL     OW13371   2.835   3.351   5.794 -0.1852 -0.4753  0.2474
 3400SOL    HW213372   2.794   3.374   5.711 -2.7243 -2.8559  0.7121
 3400SOL    HW313373   2.768   3.368   5.860  1.0731 -0.5341  1.5898
 3400SOL    MW413374   2.821   3.356   5.792  0.1175  0.5449  0.1629
 3401SOL     OW13375   1.590   4.713   5.885  0.0879  0.3147  0.1600
 3401SOL    HW213376   1.544   4.797   5.882 -1.4340 -0.5151 -0.8659
 3401SOL    HW313377   1.547   4.665   5.955  0.8987  0.3315  0.6853
 3401SOL    MW413378   1.578   4.718   5.894  0.4811 -0.3392  0.1185
 3402SOL     OW13379   1.544   4.034   4.409  0.1877 -0.3688 -0.2735
 3402SOL    HW213380   1.576   4.078   4.488  0.2335  0.2325 -0.6168
 3402SOL    HW313381   1.473   4.090   4.378 -0.1718 -0.8809 -0.3674
 3402SOL    MW413382   1.539   4.047   4.416  0.0829 -0.0638 -0.9054
 3403SOL     OW13383   2.408   0.140   0.386 -0.1168  0.3657 -0.0026
 3403SOL    HW213384   2.464   0.211   0.417  0.5554 -0.3152  0.3724
 3403SOL    HW313385   2.339   0.133   0.452  0.5901 -0.2313  0.6891
 3403SOL    MW413386   2.406   0.148   0.399 -0.1137  0.3184  0.1826
 3404SOL     OW13387   3.966   5.045   0.445 -0.0475 -0.0947  0.0948
 3404SOL    HW213388   3.889   5.040   0.387  0.7018  0.6130 -1.0138
 3404SOL    HW313389   4.025   4.978   0.412  1.0521  1.3607 -1.0469
 3404SOL    MW413390   3.963   5.036   0.433 -0.3053 -0.3475 -0.1438
 3405SOL     OW13391   2.746   6.038   4.271  0.2857 -0.0634 -0.1097
 3405SOL    HW213392   2.829   6.084   4.288  0.5382 -0.0216 -1.3604
 3405SOL    HW313393   2.754   5.956   4.319  1.0265 -0.0340 -0.1666
 3405SOL    MW413394   2.758   6.033   4.280 -0.1580 -0.4736 -0.1406
 3406SOL     OW13395   5.456   3.385   5.977 -0.1716  0.1180  0.1162
 3406SOL    HW213396   5.494   3.469   5.951  0.4964  0.0594  0.8397
 3406SOL    HW313397   5.425   3.400   6.067 -1.0459 -0.0990 -0.1430
 3406SOL    MW413398   5.457   3.398   5.986  0.1506  0.2957 -0.9631
 3407SOL     OW13399   0.302   1.920   0.299 -0.3570  0.1661  0.6478
 3407SOL    HW213400   0.248   1.999   0.289 -1.2561 -0.5342 -0.1656
 3407SOL    HW313401   0.383   1.940   0.251 -0.4588  0.6973  0.6880
 3407SOL    MW413402   0.305   1.933   0.292 -0.4035  0.2639 -0.2022
 3408SOL     OW13403   0.453   2.580   1.724  0.7594 -0.1392  0.5841
 3408SOL    HW213404   0.514   2.562   1.796  1.6626 -1.2813 -0.4262
 3408SOL    HW313405   0.510   2.605   1.651 -0.0061 -0.9426 -0.3009
 3408SOL    MW413406   0.469   2.581   1.724  0.7362  0.5587 -0.0967
 3409SOL     OW13407   0.050   0.778   0.864  0.1387 -0.3127  0.2629
 3409SOL    HW213408   0.001   0.696   0.864 -0.7372  0.1989  0.2224
 3409SOL    HW313409  -0.004   0.839   0.813  1.0517  0.1361 -0.2072
 3409SOL    MW413410   0.036   0.775   0.857 -0.5669  0.4621 -0.0656
 3410SOL     OW13411   1.008   5.932   4.961 -0.7438  0.5349 -0.0772
 3410SOL    HW213412   0.976   5.937   4.871  2.4511 -2.0735 -1.5852
 3410SOL    HW313413   0.981   5.845   4.991  0.9852  0.0381  0.1752
 3410SOL    MW413414   1.000   5.921   4.953  0.2592  0.2516  0.2829
 3411SOL     OW13415   4.138   2.430   4.331  0.2407  0.3165  0.4780
 3411SOL    HW213416   4.232   2.435   4.309  0.3580 -2.8086 -0.1241
 3411SOL    HW313417   4.095   2.418   4.246 -0.3373 -1.4972  0.9939
 3411SOL    MW413418   4.145   2.429   4.317  0.1289 -0.0969  0.2032
 3412SOL     OW13419   0.370   5.304   0.924  0.3949  0.5465  0.1512
 3412SOL    HW213420   0.340   5.251   0.850  0.0941  0.7257  0.1434
 3412SOL    HW313421   0.305   5.374   0.932  0.3315  0.4321  0.6920
 3412SOL    MW413422   0.358   5.307   0.915  0.0365 -0.2033  0.0718
 3413SOL     OW13423   3.147   3.072   2.806 -0.4608 -0.1816 -0.0611
 3413SOL    HW213424   3.209   3.145   2.815 -1.1175  0.4470 -0.5399
 3413SOL    HW313425   3.161   3.040   2.718 -2.1169  1.2056 -0.8861
 3413SOL    MW413426   3.157   3.077   2.796 -0.7207 -0.5598  0.3690
 3414SOL     OW13427   5.443   6.405   2.996  0.0953 -0.8561  0.5766
 3414SOL    HW213428   5.361   6.438   2.959  0.6096 -1.8196 -1.6076
 3414SOL    HW313429   5.475   6.342   2.930  2.0021 -1.3698  1.9089
 3414SOL    MW413430   5.436   6.401   2.982 -0.4654 -0.3639 -0.4539
 3415SOL     OW13431   1.081   4.094   2.299  0.1360 -0.3000 -0.0556
 3415SOL    HW213432   1.137   4.017   2.291  0.9981  0.4687 -2.1811
 3415SOL    HW313433   1.140   4.164   2.327 -0.9889 -0.6900  3.8642
 3415SOL    MW413434   1.096   4.093   2.302 -0.1555  0.0407  0.4639
 3416SOL     OW13435   0.344   3.693   1.742 -0.3674  0.8043  0.5648
 3416SOL    HW213436   0.260   3.719   1.779 -0.9230 -0.8178  0.5238
 3416SOL    HW313437   0.377   3.772   1.699 -1.8964  1.4613  0.5258
 3416SOL    MW413438   0.337   3.707   1.741  0.3078  0.2285 -0.4698
 3417SOL     OW13439   4.366   5.121   6.091  0.3148  0.4594 -0.4622
 3417SOL    HW213440   4.316   5.193   6.052 -2.5287 -0.5009  1.1049
 3417SOL    HW313441   4.352   5.047   6.031  0.7944  0.4508 -0.5691
 3417SOL    MW413442   4.357   5.121   6.078  0.1178  0.4849 -0.3732
 3418SOL     OW13443   4.039   2.059   3.468 -0.4532  0.2391  0.0150
 3418SOL    HW213444   4.034   1.968   3.495  0.7971 -0.2367 -1.2178
 3418SOL    HW313445   3.959   2.074   3.417 -1.1020  0.1224  0.9728
 3418SOL    MW413446   4.028   2.049   3.464  0.3647 -0.0343  0.0497
 3419SOL     OW13447   1.234   4.953   3.120 -0.0381  0.3232  0.5736
 3419SOL    HW213448   1.314   4.977   3.168  0.3497 -2.5681  1.5552
 3419SOL    HW313449   1.166   5.008   3.157  1.3037  2.2534  0.3092
 3419SOL    MW413450   1.236   4.963   3.131  0.5876 -0.1342  0.2519
 3420SOL     OW13451   2.929   0.241   5.835 -0.2211 -0.3152  0.1371
 3420SOL    HW213452   2.947   0.277   5.921 -0.4117  2.7453 -0.9709
 3420SOL    HW313453   2.866   0.301   5.796 -2.5968 -3.2951 -1.0603
 3420SOL    MW413454   2.923   0.254   5.841  0.8634 -0.5808 -0.3566
 3421SOL     OW13455   0.531   5.252   6.088 -0.1419  0.5204 -0.1091
 3421SOL    HW213456   0.600   5.188   6.106 -0.5927  0.0610 -0.0239
 3421SOL    HW313457   0.530   5.260   5.993 -0.1112  0.3768 -0.1215
 3421SOL    MW413458   0.540   5.245   6.078  0.0545 -0.0376  0.3315
 3422SOL     OW13459   0.093   2.625   0.350  0.6119  0.4986  0.0385
 3422SOL    HW213460   0.029   2.630   0.279  1.1726 -0.8615 -0.5904
 3422SOL    HW313461   0.040   2.627   0.430 -0.0211  2.1560 -0.3715
 3422SOL    MW413462   0.077   2.626   0.351  0.3116 -0.2120 -0.0374
 3423SOL     OW13463   5.697   1.928   2.712 -0.0546 -0.2651 -0.0701
 3423SOL    HW213464   5.636   1.898   2.780 -1.5511  0.7715 -0.9025
 3423SOL    HW313465   5.641   1.951   2.638  1.5086 -0.9318 -1.5136
 3423SOL    MW413466   5.682   1.927   2.711  0.0092  0.0955  0.2353
 3424SOL     OW13467   1.418   3.340   1.500 -0.6338  0.8145  0.1615
 3424SOL    HW213468   1.512   3.346   1.519 -0.3852 -1.8074  0.1516
 3424SOL    HW313469   1.410   3.374   1.410  0.4795  0.2565 -0.1712
 3424SOL    MW413470   1.430   3.345   1.490 -0.6144  0.0130  0.3038
 3425SOL     OW13471   3.465   4.107   3.331 -0.2363  0.2379  0.4088
 3425SOL    HW213472   3.403   4.137   3.397  0.5331  1.9211  0.4104
 3425SOL    HW313473   3.415   4.102   3.250 -0.7122  0.1285  0.7085
 3425SOL    MW413474   3.450   4.110   3.329  0.2806  0.3630  0.4470
 3426SOL     OW13475   1.064   6.130   4.742 -0.2429 -0.6873 -0.0539
 3426SOL    HW213476   0.995   6.076   4.704 -0.0178 -1.6326  0.8269
 3426SOL    HW313477   1.101   6.178   4.668 -2.2811  0.3959 -0.4553
 3426SOL    MW413478   1.060   6.130   4.727  0.3338  0.4108  0.0157
 3427SOL     OW13479   3.826   6.377   4.494  0.3706  0.5257  0.1751
 3427SOL    HW213480   3.745   6.413   4.458  1.1716  1.5300 -0.6873
 3427SOL    HW313481   3.847   6.433   4.568  2.2063  2.6889 -1.8247
 3427SOL    MW413482   3.819   6.389   4.499  0.2518  0.3063 -0.3226
 3428SOL     OW13483   6.003   1.052   0.356 -0.2350 -0.1340 -0.0685
 3428SOL    HW213484   6.076   1.021   0.303  0.4637 -0.2564  0.9260
 3428SOL    HW313485   6.038   1.052   0.446 -0.8785  1.5201  0.2156
 3428SOL    MW413486   6.018   1.048   0.361  0.2210 -0.2220  0.8265
 3429SOL     OW13487   2.147   3.804   3.407 -0.4160  0.1645 -0.0629
 3429SOL    HW213488   2.076   3.798   3.343 -0.5463  0.7142  0.0273
 3429SOL    HW313489   2.134   3.729   3.465 -1.2810  0.6082  0.3193
 3429SOL    MW413490   2.136   3.793   3.406  0.4537 -0.2020  0.8279
 3430SOL     OW13491   1.449   2.820   1.959  0.0991 -0.5163 -0.4036
 3430SOL    HW213492   1.455   2.849   1.867  0.7204  0.7540  0.0068
 3430SOL    HW313493   1.512   2.749   1.966  0.8375  0.0937 -0.7166
 3430SOL    MW413494   1.458   2.815   1.948 -0.1937 -0.0993  0.1233
 3431SOL     OW13495   1.799   3.690   2.525  0.1405 -0.0330 -0.7276
 3431SOL    HW213496   1.859   3.737   2.583 -1.5677 -0.9837  1.9457
 3431SOL    HW313497   1.834   3.601   2.521  0.4228  0.0995 -1.4821
 3431SOL    MW413498   1.812   3.685   2.532 -0.1894 -0.0511 -0.4355
 3432SOL     OW13499   0.556   2.455   2.425 -0.2089 -0.3492 -0.3497
 3432SOL    HW213500   0.583   2.387   2.486 -0.7081 -1.1503 -1.0033
 3432SOL    HW313501   0.634   2.472   2.372 -0.5509 -1.6915 -1.3445
 3432SOL    MW413502   0.570   2.448   2.426 -0.6006  0.6332 -0.2797
 3433SOL     OW13503   0.837   2.198   6.310  0.4709 -0.6392 -0.7307
 3433SOL    HW213504   0.766   2.181   6.249  0.3377  0.7300 -0.9806
 3433SOL    HW313505   0.848   2.115   6.357 -1.6832 -0.7216 -0.2650
 3433SOL    MW413506   0.829   2.185   6.309  0.0347 -0.4088  0.3429
 3434SOL     OW13507   0.386   4.766   0.475 -0.1487 -0.3795 -0.4855
 3434SOL    HW213508   0.303   4.728   0.503  0.3917 -1.3013 -0.1095
 3434SOL    HW313509   0.363   4.818   0.398 -1.0325 -0.8224 -0.5394
 3434SOL    MW413510   0.372   4.768   0.469  0.0729 -0.3159  0.3806
 3435SOL     OW13511   3.748   0.801   4.223 -0.0239  0.1589  0.3341
 3435SOL    HW213512   3.721   0.797   4.315 -1.0623 -1.0261  0.0024
 3435SOL    HW313513   3.765   0.894   4.207  1.9314  0.2028  2.1856
 3435SOL    MW413514   3.747   0.813   4.233 -0.0456 -0.3905  0.0639
 3436SOL     OW13515   3.538   6.212   2.646  0.5989  0.6254  0.6567
 3436SOL    HW213516   3.449   6.189   2.619  0.8360  0.9339 -0.4182
 3436SOL    HW313517   3.563   6.144   2.708 -0.0073 -0.0484  0.1707
 3436SOL    MW413518   3.530   6.200   2.651  0.5748 -0.3679  0.3627
 3437SOL     OW13519   4.686   2.060   5.292 -0.4104  0.1469 -0.2326
 3437SOL    HW213520   4.761   2.001   5.282  2.4395  2.6177  3.6892
 3437SOL    HW313521   4.630   2.016   5.356  0.3107  0.3789  0.5899
 3437SOL    MW413522   4.689   2.046   5.299  0.0288  0.5637  0.2765
 3438SOL     OW13523   1.715   6.357   6.406  0.1842 -0.2208  0.3633
 3438SOL    HW213524   1.785   6.399   6.357  0.5567 -0.9192  0.2782
 3438SOL    HW313525   1.664   6.429   6.443 -0.5000  0.3633 -1.5826
 3438SOL    MW413526   1.717   6.372   6.405  0.3945  0.4062  0.4068
 3439SOL     OW13527   3.241   5.876   2.263 -0.7376 -0.4056 -0.2761
 3439SOL    HW213528   3.268   5.785   2.245 -2.3779 -1.2511  1.2365
 3439SOL    HW313529   3.312   5.912   2.316 -1.1879 -1.6686  1.2708
 3439SOL    MW413530   3.254   5.868   2.267 -0.1647 -0.1772  0.2903
 3440SOL     OW13531   4.046   0.229   2.446  0.2780 -0.9248  0.2153
 3440SOL    HW213532   3.960   0.269   2.435 -0.0073  0.5081  5.2606
 3440SOL    HW313533   4.029   0.135   2.449 -0.5061 -0.9121 -2.0004
 3440SOL    MW413534   4.033   0.222   2.445  0.2338 -0.3243 -0.4014
 3441SOL     OW13535   2.681   3.373   5.566 -0.0816  0.3497 -0.0836
 3441SOL    HW213536   2.620   3.309   5.530 -0.0248  0.4390 -0.3385
 3441SOL    HW313537   2.729   3.407   5.490  0.7076 -0.1497  0.1746
 3441SOL    MW413538   2.679   3.369   5.551  0.0666 -0.6960 -0.1198
 3442SOL     OW13539   4.717   3.284   1.679  0.2864  0.4021 -0.3536
 3442SOL    HW213540   4.794   3.284   1.622  0.6905  0.6115  0.1785
 3442SOL    HW313541   4.643   3.272   1.620  0.8256 -1.2703 -0.7364
 3442SOL    MW413542   4.718   3.282   1.664  0.4741  0.1154  0.0999
 3443SOL     OW13543   2.945   4.941   0.018  0.7208 -0.3653 -0.2129
 3443SOL    HW213544   3.034   4.911   0.036  1.4047 -0.7908 -3.7327
 3443SOL    HW313545   2.897   4.862  -0.005 -0.2147  0.0485  0.2541
 3443SOL    MW413546   2.951   4.927   0.018 -0.0576 -0.0929 -0.2131
 3444SOL     OW13547   5.951   2.837   2.520 -0.5850 -0.2909 -1.1601
 3444SOL    HW213548   5.989   2.881   2.596  1.1387 -0.5974 -1.7974
 3444SOL    HW313549   5.917   2.909   2.466 -1.5518 -0.0548 -0.2669
 3444SOL    MW413550   5.951   2.853   2.523  0.0677 -0.3538 -0.1294
 3445SOL     OW13551   4.307   3.904   0.195  0.2879 -0.2536  0.1152
 3445SOL    HW213552   4.218   3.896   0.229 -0.3438  0.3931 -1.3132
 3445SOL    HW313553   4.352   3.962   0.256  0.0983 -1.4855  1.4828
 3445SOL    MW413554   4.301   3.910   0.207 -0.0694 -0.3450 -0.8138
 3446SOL     OW13555   4.725   0.070   5.151  0.2131 -0.2869  0.3008
 3446SOL    HW213556   4.633   0.074   5.123  0.5005  0.0222 -0.6138
 3446SOL    HW313557   4.722   0.095   5.244 -0.5585  0.3033  0.1303
 3446SOL    MW413558   4.712   0.074   5.160  0.8810  0.3122  0.0127
 3447SOL     OW13559   4.879   4.793   4.273 -0.3972 -0.7549 -0.1249
 3447SOL    HW213560   4.900   4.732   4.203 -0.6269 -0.4838 -0.4384
 3447SOL    HW313561   4.940   4.866   4.261  0.1803 -1.1252  0.5244
 3447SOL    MW413562   4.890   4.795   4.262 -0.7105  0.0409 -0.4964
 3448SOL     OW13563   0.037   1.513   0.929 -0.1566  0.2170  0.5110
 3448SOL    HW213564   0.026   1.554   1.015 -1.3417  4.1259 -1.2682
 3448SOL    HW313565  -0.050   1.483   0.905 -0.1150  0.4133  0.1107
 3448SOL    MW413566   0.024   1.514   0.937  0.0177 -0.1140 -0.2326
 3449SOL     OW13567   1.234   5.590   4.559  0.4616 -0.0378 -0.1567
 3449SOL    HW213568   1.290   5.585   4.482  0.5176  1.5391 -0.2561
 3449SOL    HW313569   1.159   5.643   4.531 -0.8628 -1.7040  0.1176
 3449SOL    MW413570   1.232   5.596   4.545  0.6338 -0.0872  0.4491
 3450SOL     OW13571   4.078   4.182   3.062  0.6890  0.0425  0.5108
 3450SOL    HW213572   4.103   4.118   3.129  0.2386 -0.2287  0.4236
 3450SOL    HW313573   4.079   4.132   2.980 -1.2828 -0.2990  0.6453
 3450SOL    MW413574   4.082   4.167   3.060  0.4305  0.2292 -0.1847
 3451SOL     OW13575   5.346   5.980   4.625  0.1211 -0.3020  0.1685
 3451SOL    HW213576   5.336   6.003   4.718 -0.1773  2.6435 -0.4918
 3451SOL    HW313577   5.332   6.063   4.579 -1.6818 -2.0332 -2.6606
 3451SOL    MW413578   5.342   5.994   4.631 -0.3591  0.0849 -0.2853
 3452SOL     OW13579   3.547   3.813   1.087 -0.2727  0.0195 -0.1056
 3452SOL    HW213580   3.549   3.889   1.030 -0.8849  0.8419  0.9198
 3452SOL    HW313581   3.455   3.803   1.111 -0.3494 -1.5896 -0.8868
 3452SOL    MW413582   3.535   3.821   1.083 -0.0363 -0.0776 -0.0978
 3453SOL     OW13583   1.574   1.136   4.273  0.2734  0.1284  0.2111
 3453SOL    HW213584   1.489   1.126   4.230  0.0733  0.4635  0.5188
 3453SOL    HW313585   1.554   1.186   4.353  1.0713  2.1259 -0.7747
 3453SOL    MW413586   1.560   1.142   4.278  0.5424 -0.0498  0.2473
 3454SOL     OW13587   4.172   1.464   4.937  0.2532 -0.1818  0.4059
 3454SOL    HW213588   4.161   1.374   4.905  0.8143  0.0346 -0.4300
 3454SOL    HW313589   4.125   1.518   4.873  0.8417  0.2031  0.2924
 3454SOL    MW413590   4.164   1.459   4.924  0.5142  0.1535  0.3779
 3455SOL     OW13591   0.514   4.982   0.659  0.0534 -0.3378 -0.3176
 3455SOL    HW213592   0.486   4.927   0.585  0.3831  1.3127 -1.7249
 3455SOL    HW313593   0.451   5.054   0.661  0.7219  0.2493  0.2950
 3455SOL    MW413594   0.502   4.984   0.650 -0.0091 -0.3024 -0.4870
 3456SOL     OW13595   3.466   2.765   5.169 -0.0250  0.3302 -0.4539
 3456SOL    HW213596   3.544   2.722   5.134 -0.6068 -0.1718 -1.1613
 3456SOL    HW313597   3.403   2.764   5.097 -0.7310  0.6212  0.1393
 3456SOL    MW413598   3.468   2.759   5.155 -0.0610  0.4036 -0.1398
 3457SOL     OW13599   3.695   5.688   3.941  0.1154  0.2744  0.3644
 3457SOL    HW213600   3.661   5.676   4.030 -4.1111  0.9140 -0.9560
 3457SOL    HW313601   3.688   5.782   3.926 -0.6283  0.0044 -1.1153
 3457SOL    MW413602   3.690   5.699   3.951  0.0382  0.1989 -0.7537
 3458SOL     OW13603   0.020   4.085   4.810 -0.1387  0.4788  0.1678
 3458SOL    HW213604   0.019   3.989   4.815 -2.6566  0.2932 -1.7062
 3458SOL    HW313605  -0.055   4.113   4.862  0.6968  1.4867  0.8784
 3458SOL    MW413606   0.010   4.076   4.818  0.0460 -0.7479  0.0068
 3459SOL     OW13607   1.930   4.211   1.130  0.2918  0.3798 -0.4328
 3459SOL    HW213608   1.973   4.210   1.216  1.0069  0.3461 -0.7798
 3459SOL    HW313609   1.939   4.301   1.100 -1.0870  0.7059  0.0653
 3459SOL    MW413610   1.937   4.223   1.137 -0.1349 -0.0404  0.0696
 3460SOL     OW13611   2.748   0.548   0.814 -0.5976 -0.1149 -0.0238
 3460SOL    HW213612   2.654   0.537   0.800 -0.5858 -0.5898  0.2446
 3460SOL    HW313613   2.772   0.476   0.872  0.0586 -0.4086 -0.6341
 3460SOL    MW413614   2.739   0.537   0.820  0.0377  0.0006 -0.0221
 3461SOL     OW13615   6.207   3.850   6.096  0.1274 -0.1524  0.2947
 3461SOL    HW213616   6.292   3.872   6.058 -0.3998  0.9112 -0.3240
 3461SOL    HW313617   6.168   3.788   6.036 -0.4895  1.1368 -0.6856
 3461SOL    MW413618   6.213   3.845   6.083  0.0604  0.2451 -0.0766
 3462SOL     OW13619   3.513   4.348   6.043 -0.1130  0.0286 -0.2255
 3462SOL    HW213620   3.483   4.277   6.100  0.0789 -1.4097 -1.8184
 3462SOL    HW313621   3.556   4.410   6.102 -2.0777 -0.1169  1.5024
 3462SOL    MW413622   3.515   4.347   6.058  1.0172  0.1344 -0.0498
 3463SOL     OW13623   6.324   1.499   5.512 -0.0534  0.2862  0.2020
 3463SOL    HW213624   6.291   1.585   5.488  0.8637  0.2579 -1.3205
 3463SOL    HW313625   6.359   1.510   5.600 -0.6778  1.2551  0.3443
 3463SOL    MW413626   6.324   1.512   5.520  0.4965 -0.0516  0.3240
 3464SOL     OW13627   4.458   3.210   3.906 -0.0372 -0.6136  0.0219
 3464SOL    HW213628   4.522   3.147   3.941  1.3701  0.7895  0.0714
 3464SOL    HW313629   4.511   3.272   3.855 -1.4188  0.3709 -0.2664
 3464SOL    MW413630   4.473   3.210   3.904  0.0546  0.1171  0.5439
 3465SOL     OW13631   4.800   5.793   1.349 -0.0995 -0.1306 -0.0516
 3465SOL    HW213632   4.751   5.730   1.402  1.8441 -0.9894  0.8443
 3465SOL    HW313633   4.876   5.816   1.403  0.6329  0.9424 -1.4606
 3465SOL    MW413634   4.804   5.788   1.363  0.1101 -0.1093 -0.0498
 3466SOL     OW13635   2.838   0.470   4.770  0.5529 -0.3470  0.1018
 3466SOL    HW213636   2.900   0.501   4.837  2.5398  0.8435 -2.1501
 3466SOL    HW313637   2.856   0.376   4.763 -1.2432 -0.9865  2.6930
 3466SOL    MW413638   2.849   0.462   4.778  0.4263  0.9607  0.3317
 3467SOL     OW13639   0.356   2.424   2.729  0.3370  0.6298 -0.4038
 3467SOL    HW213640   0.399   2.453   2.810 -2.3862  1.0189  1.0275
 3467SOL    HW313641   0.365   2.329   2.730 -0.8450  0.4878  1.1687
 3467SOL    MW413642   0.362   2.415   2.740 -0.2450 -0.1439  0.2855
 3468SOL     OW13643   0.474   1.223   2.880  0.2167 -0.2064 -0.2051
 3468SOL    HW213644   0.476   1.273   2.798  1.2738 -1.8163 -1.2068
 3468SOL    HW313645   0.417   1.274   2.937 -0.4783  1.0163 -1.8977
 3468SOL    MW413646   0.467   1.237   2.877 -0.4311 -0.1757  0.3152
 3469SOL     OW13647   3.041   0.701   5.512  0.1310  0.9568  0.3126
 3469SOL    HW213648   2.992   0.727   5.434 -1.4270 -0.0319  0.9243
 3469SOL    HW313649   3.012   0.612   5.531  2.1278  0.3598  0.7654
 3469SOL    MW413650   3.031   0.693   5.504  0.8083  0.4622 -0.2181
 3470SOL     OW13651   4.297   3.776   5.968  0.3816  0.0140 -0.0740
 3470SOL    HW213652   4.293   3.696   6.021  0.4224  0.4820  0.6542
 3470SOL    HW313653   4.387   3.807   5.980  0.3685  0.1583 -0.3651
 3470SOL    MW413654   4.308   3.770   5.977  0.0444 -0.0990  0.3689
 3471SOL     OW13655   2.768   6.213   4.625  0.2691 -0.1756  0.7611
 3471SOL    HW213656   2.845   6.187   4.575  0.7478  4.1431 -1.2745
 3471SOL    HW313657   2.694   6.177   4.576  0.8969  0.5967 -0.8207
 3471SOL    MW413658   2.768   6.205   4.612  0.4541  0.7701  0.1184
 3472SOL     OW13659   2.751   0.011   0.121  0.6621  0.1036 -0.4025
 3472SOL    HW213660   2.828   0.064   0.102  2.2735 -2.8070 -2.7354
 3472SOL    HW313661   2.748   0.007   0.217  0.4541  4.1104 -0.0682
 3472SOL    MW413662   2.760   0.017   0.131  0.5702  0.4915  0.3530
 3473SOL     OW13663   0.336   4.755   4.351  0.2592 -0.2447 -0.5352
 3473SOL    HW213664   0.325   4.829   4.411  1.4652 -0.6395  0.2085
 3473SOL    HW313665   0.376   4.687   4.404  0.5725 -0.9064 -1.5887
 3473SOL    MW413666   0.340   4.756   4.366 -0.3974 -0.4020  0.6902
 3474SOL     OW13667   1.596   5.136   2.670  0.0356 -0.3458  0.1480
 3474SOL    HW213668   1.626   5.048   2.647  0.7804 -0.6018  1.9363
 3474SOL    HW313669   1.503   5.125   2.690 -0.4471 -0.2537 -1.7779
 3474SOL    MW413670   1.588   5.123   2.669  0.1887 -0.3557  0.1761
 3475SOL     OW13671   2.509   4.771   0.300 -0.3860  0.6968  0.2312
 3475SOL    HW213672   2.459   4.781   0.218  0.3866 -1.4896 -0.5731
 3475SOL    HW313673   2.587   4.825   0.287  0.1337 -0.2783 -0.8549
 3475SOL    MW413674   2.513   4.779   0.287  0.7491 -0.2606 -0.4897
 3476SOL     OW13675   3.001   5.053   4.615  0.3006  0.2099 -0.1540
 3476SOL    HW213676   2.987   5.146   4.598 -0.6470  0.1511  0.2147
 3476SOL    HW313677   2.976   5.041   4.706 -0.8972 -0.6333 -0.5597
 3476SOL    MW413678   2.996   5.064   4.625 -0.9861 -0.0918  0.1023
 3477SOL     OW13679   2.919   1.785   3.840  0.2581  0.3616 -0.2518
 3477SOL    HW213680   2.972   1.755   3.767 -1.3358 -0.1316 -1.2630
 3477SOL    HW313681   2.938   1.878   3.848 -0.2173  0.6229 -1.9083
 3477SOL    MW413682   2.928   1.793   3.832 -0.1540 -0.9662  0.3050
 3478SOL     OW13683   2.641   3.303   4.815  0.4471 -0.6775  0.4239
 3478SOL    HW213684   2.651   3.236   4.748  2.2030 -1.1512  1.0843
 3478SOL    HW313685   2.724   3.351   4.813  1.0302 -1.4200  2.9655
 3478SOL    MW413686   2.654   3.301   4.806  0.1512 -0.6448  0.1281
 3479SOL     OW13687   5.954   4.043   1.221  0.5412 -0.4117 -0.6327
 3479SOL    HW213688   5.946   3.974   1.155  1.3222 -1.3577  0.2352
 3479SOL    HW313689   6.012   4.006   1.287  0.2940  0.7717  0.2696
 3479SOL    MW413690   5.961   4.029   1.221 -0.0750  0.1858 -0.3100
 3480SOL     OW13691   6.311   6.131   2.542  0.0288  0.2317  0.0255
 3480SOL    HW213692   6.240   6.070   2.525 -1.1090 -0.8893  6.3212
 3480SOL    HW313693   6.387   6.076   2.561  1.3229  1.2490 -1.9015
 3480SOL    MW413694   6.311   6.116   2.542  0.1711 -0.0338  0.6723
 3481SOL     OW13695   3.960   5.099   0.743  0.4611  0.0295 -0.4459
 3481SOL    HW213696   3.932   5.190   0.751 -0.2982 -0.3454  1.9113
 3481SOL    HW313697   3.967   5.085   0.649  1.4024  2.7332 -0.8729
 3481SOL    MW413698   3.957   5.109   0.732 -0.7679  0.3808  0.0374
 3482SOL     OW13699   6.175   0.015   6.103  0.2041  0.1267 -0.2996
 3482SOL    HW213700   6.159   0.051   6.191 -0.5329 -0.4637 -0.1855
 3482SOL    HW313701   6.168   0.091   6.045  1.5041  0.6807  0.2099
 3482SOL    MW413702   6.172   0.030   6.107  0.2790 -0.3567 -0.0504
 3483SOL     OW13703   3.384   1.378   1.727 -0.0810  0.3603  0.0757
 3483SOL    HW213704   3.373   1.421   1.812  0.6855  0.0978  0.3168
 3483SOL    HW313705   3.295   1.362   1.696 -0.3666  0.3779  0.8734
 3483SOL    MW413706   3.371   1.381   1.734  0.5160  0.4187 -0.0844
 3484SOL     OW13707   2.678   4.668   4.643 -0.2658 -0.0413  0.1529
 3484SOL    HW213708   2.680   4.596   4.706 -2.1837  0.9253  1.3950
 3484SOL    HW313709   2.585   4.675   4.618 -0.1059  1.9587  0.0228
 3484SOL    MW413710   2.666   4.659   4.648 -0.6166  0.2730  0.2045
 3485SOL     OW13711   5.271   2.026   5.348 -0.3502  0.4421 -0.3401
 3485SOL    HW213712   5.233   1.944   5.315  1.5785 -1.4381  1.7554
 3485SOL    HW313713   5.201   2.065   5.400 -2.1204  1.4996 -3.2718
 3485SOL    MW413714   5.257   2.020   5.350 -0.8702 -0.9016  0.2813
 3486SOL     OW13715   5.134   6.309   1.555 -0.4211 -0.1130  0.1990
 3486SOL    HW213716   5.147   6.404   1.559 -1.4329  0.0756 -0.5977
 3486SOL    HW313717   5.040   6.298   1.571 -0.5487 -0.8827 -1.0392
 3486SOL    MW413718   5.123   6.320   1.558 -0.2308  0.6513  0.1557
 3487SOL     OW13719   1.017   0.041   1.129 -0.2802  0.2606 -0.0934
 3487SOL    HW213720   0.998   0.114   1.071 -0.4936 -0.1242 -0.5161
 3487SOL    HW313721   0.986   0.070   1.215  1.2962  1.3788  0.1367
 3487SOL    MW413722   1.010   0.054   1.133 -0.3104 -0.5481 -0.0650
 3488SOL     OW13723   3.458   4.050   4.549  0.0227  0.5071  0.8240
 3488SOL    HW213724   3.552   4.037   4.561 -0.0239 -0.5531  0.1525
 3488SOL    HW313725   3.443   4.141   4.576  0.8108 -0.0233  3.3356
 3488SOL    MW413726   3.469   4.061   4.554 -0.1696  0.3471  0.6145
 3489SOL     OW13727   1.092   2.476   0.511  0.3128  0.6655  0.3404
 3489SOL    HW213728   1.048   2.499   0.593 -2.3049 -0.5629 -0.6010
 3489SOL    HW313729   1.027   2.495   0.443  1.0714 -1.5954 -1.1407
 3489SOL    MW413730   1.078   2.482   0.513 -0.4462  0.5935  0.1001
 3490SOL     OW13731   0.409   5.507   6.221 -0.5772  0.1651  0.2921
 3490SOL    HW213732   0.468   5.436   6.195  1.8073  2.2050 -0.2345
 3490SOL    HW313733   0.363   5.530   6.140 -1.8734 -1.1408  0.6096
 3490SOL    MW413734   0.411   5.501   6.207 -0.3414 -0.5903  0.0717
 3491SOL     OW13735   5.756   0.217   3.626  0.3519  0.2815  0.1348
 3491SOL    HW213736   5.685   0.188   3.567  1.1882  1.9827 -1.8408
 3491SOL    HW313737   5.711   0.257   3.700 -0.7544  0.2553 -0.4980
 3491SOL    MW413738   5.740   0.218   3.628  0.0951 -0.2702 -0.3822
 3492SOL     OW13739   4.123   2.573   4.707 -0.1994  0.7777 -0.0953
 3492SOL    HW213740   4.131   2.628   4.629  0.2093  0.3407 -0.3647
 3492SOL    HW313741   4.030   2.577   4.730 -0.8589 -1.1358 -2.1170
 3492SOL    MW413742   4.111   2.581   4.700 -0.7625  0.2866 -1.2234
 3493SOL     OW13743   4.742   0.087   0.915  0.0068 -0.0785  0.0982
 3493SOL    HW213744   4.662   0.057   0.873 -0.9190  0.6842  1.2745
 3493SOL    HW313745   4.804   0.099   0.843 -1.4446  0.9269 -1.0446
 3493SOL    MW413746   4.740   0.085   0.900 -0.0849  0.0262 -0.8496
 3494SOL     OW13747   5.154   1.214   0.570  0.0349 -0.0589 -0.2433
 3494SOL    HW213748   5.097   1.173   0.634  0.2743  0.7025  0.4836
 3494SOL    HW313749   5.222   1.148   0.553  0.3658 -0.0177  0.8317
 3494SOL    MW413750   5.156   1.200   0.576  0.7924  0.5421  0.1299
 3495SOL     OW13751   2.955   2.843   4.350  0.3702 -0.1913  0.8075
 3495SOL    HW213752   3.021   2.807   4.291  0.4968 -1.0767  1.4760
 3495SOL    HW313753   2.967   2.795   4.432 -0.8723 -0.1182  1.0510
 3495SOL    MW413754   2.965   2.832   4.353 -0.1659 -0.0558 -0.2224
 3496SOL     OW13755   1.552   3.427   5.309 -0.0185  0.3667 -0.7440
 3496SOL    HW213756   1.591   3.395   5.390 -0.4066 -0.3682 -0.8424
 3496SOL    HW313757   1.618   3.487   5.273  0.4394  0.1811 -0.2301
 3496SOL    MW413758   1.566   3.431   5.315 -0.0040  0.4530 -0.2778
 3497SOL     OW13759   4.266   0.271   4.754  0.3365 -0.1708 -0.3078
 3497SOL    HW213760   4.284   0.178   4.762  1.3151  0.0153 -0.2179
 3497SOL    HW313761   4.174   0.276   4.727  0.3827 -1.1652 -0.6674
 3497SOL    MW413762   4.256   0.260   4.751 -0.2233 -0.0957 -0.0596
 3498SOL     OW13763   3.535   3.282   1.664 -0.1271  0.4506 -0.2614
 3498SOL    HW213764   3.515   3.224   1.590  0.1070 -1.2788  0.9656
 3498SOL    HW313765   3.617   3.325   1.640  0.1748 -0.4250 -0.8282
 3498SOL    MW413766   3.543   3.280   1.651 -0.1319 -0.6470  0.2784
 3499SOL     OW13767   5.743   4.177   5.001  0.5568  0.5031  0.5909
 3499SOL    HW213768   5.696   4.104   4.960  0.1998  0.3168  1.3180
 3499SOL    HW313769   5.674   4.228   5.044  0.5890  2.0945 -1.0832
 3499SOL    MW413770   5.728   4.174   5.001 -1.2871  0.1144 -0.2725
 3500SOL     OW13771   2.598   2.585   5.848  0.0426 -0.4301  0.0090
 3500SOL    HW213772   2.558   2.671   5.862 -1.5948 -1.1882  0.2054
 3500SOL    HW313773   2.544   2.545   5.779 -0.5951 -2.1225  1.4242
 3500SOL    MW413774   2.586   2.591   5.841 -0.1517 -0.2130 -0.4083
 3501SOL     OW13775   5.169   3.484   2.958 -0.1686 -0.1174 -0.9779
 3501SOL    HW213776   5.212   3.410   2.914  0.9056  0.0235 -0.1864
 3501SOL    HW313777   5.217   3.496   3.039 -2.4354 -0.7007  0.5512
 3501SOL    MW413778   5.181   3.476   2.963 -0.4914  0.5697  0.2052
 3502SOL     OW13779   1.417   2.446   5.901  0.5404  0.7894  0.1651
 3502SOL    HW213780   1.365   2.437   5.981 -2.0317  2.2086 -1.1980
 3502SOL    HW313781   1.464   2.528   5.913  1.5723  0.1248  0.8851
 3502SOL    MW413782   1.416   2.456   5.913 -0.2277 -0.4820  0.1260
 3503SOL     OW13783   2.980   0.793   1.994 -0.1543 -0.5562  0.7220
 3503SOL    HW213784   2.989   0.867   2.054 -0.6071  0.5104 -0.4695
 3503SOL    HW313785   3.061   0.794   1.943  0.3359 -1.6047  1.4616
 3503SOL    MW413786   2.992   0.803   1.995  0.5254  0.7347  0.2191
 3504SOL     OW13787   0.918   3.642   5.546 -0.3511  0.2856 -0.2193
 3504SOL    HW213788   0.930   3.558   5.501  0.6440  0.9938 -1.3285
 3504SOL    HW313789   0.834   3.633   5.591 -0.4567 -1.1561 -0.6546
 3504SOL    MW413790   0.908   3.630   5.546 -0.4984 -0.2347  0.3409
 3505SOL     OW13791   2.165   3.476   2.490  0.0680 -0.1095 -0.1709
 3505SOL    HW213792   2.178   3.568   2.468 -0.4095  0.0767  0.3107
 3505SOL    HW313793   2.206   3.428   2.418  1.2978  0.4713  0.1278
 3505SOL    MW413794   2.172   3.482   2.478 -0.1108  0.2721  0.3999
 3506SOL     OW13795   1.810   1.874   0.037 -0.4296  0.0612 -0.4365
 3506SOL    HW213796   1.738   1.933   0.057  0.0736  0.3018  0.7341
 3506SOL    HW313797   1.774   1.813  -0.028 -1.9666 -0.3866  0.7804
 3506SOL    MW413798   1.796   1.874   0.031  0.2422 -0.0212  0.1984
 3507SOL     OW13799   3.891   3.259   1.808  0.1166 -0.3478 -0.2023
 3507SOL    HW213800   3.837   3.215   1.874  0.0150 -1.0916 -0.7653
 3507SOL    HW313801   3.889   3.200   1.733 -0.6350  0.9853 -1.2645
 3507SOL    MW413802   3.884   3.245   1.807 -0.1551 -0.1031  0.2965
 3508SOL     OW13803   0.555   0.504   1.785  0.3058 -0.3348  0.1620
 3508SOL    HW213804   0.587   0.433   1.841 -0.0653 -1.1149 -0.5964
 3508SOL    HW313805   0.521   0.569   1.847  1.3507 -0.4578  0.9006
 3508SOL    MW413806   0.555   0.503   1.801  0.0805  0.2901 -0.9390
 3509SOL     OW13807   6.342   4.495   5.384 -0.1203 -0.3103  0.2867
 3509SOL    HW213808   6.332   4.577   5.336 -0.5381 -1.2516 -1.3406
 3509SOL    HW313809   6.253   4.474   5.415 -0.2408 -0.6872 -0.2861
 3509SOL    MW413810   6.329   4.503   5.382  0.0286  0.6216  0.3946
 3510SOL     OW13811   6.268   1.033   1.989 -0.2747  0.0569 -0.4957
 3510SOL    HW213812   6.341   1.056   2.047 -0.3951 -0.2403 -0.2241
 3510SOL    HW313813   6.241   0.946   2.018 -0.3925 -0.0592 -0.9431
 3510SOL    MW413814   6.274   1.025   2.000 -0.1172  0.2442 -0.3415
 3511SOL     OW13815   3.384   5.804   1.221 -0.4480  0.3869  0.0431
 3511SOL    HW213816   3.438   5.879   1.247 -0.2095  0.0995  0.3963
 3511SOL    HW313817   3.442   5.752   1.165  0.0632 -0.5130  1.3377
 3511SOL    MW413818   3.399   5.807   1.217 -0.1368 -0.7841  0.4948
 3512SOL     OW13819   3.094   2.268   1.228  0.1726 -0.0628 -0.9059
 3512SOL    HW213820   3.151   2.342   1.207 -0.6384  0.3126 -1.8748
 3512SOL    HW313821   3.034   2.302   1.295 -0.5460  0.3551 -1.7320
 3512SOL    MW413822   3.093   2.282   1.234 -0.1900 -0.1471  0.0982
 3513SOL     OW13823   2.684   0.415   1.259 -0.2388  0.8388 -0.5454
 3513SOL    HW213824   2.591   0.422   1.236 -0.4583  0.5843  0.2459
 3513SOL    HW313825   2.723   0.369   1.184 -1.3914 -2.1700  0.5504
 3513SOL    MW413826   2.677   0.410   1.246  0.1912  0.1520  0.2797
 3514SOL     OW13827   4.916   2.514   5.641  0.1737 -0.3073 -0.1253
 3514SOL    HW213828   4.834   2.516   5.591 -0.4622 -0.6589  0.8782
 3514SOL    HW313829   4.971   2.580   5.599 -0.9966  0.6684 -0.1831
 3514SOL    MW413830   4.913   2.523   5.629 -0.0716 -0.0221  0.0446
 3515SOL     OW13831   4.221   5.228   3.176  0.5400 -0.2692  0.5364
 3515SOL    HW213832   4.212   5.177   3.257 -1.2043 -0.7159  0.0882
 3515SOL    HW313833   4.159   5.301   3.187 -0.0658 -0.5997 -0.5821
 3515SOL    MW413834   4.212   5.231   3.188 -0.0877  0.4777  0.2201
 3516SOL     OW13835   4.051   2.613   2.593 -0.3348 -0.4762 -0.0173
 3516SOL    HW213836   4.076   2.565   2.672  1.2970  1.5844  0.8280
 3516SOL    HW313837   3.956   2.616   2.596 -0.3795 -1.8299  0.9962
 3516SOL    MW413838   4.042   2.607   2.604  0.5481  0.3749 -0.5547
 3517SOL     OW13839   1.835   1.882   3.049 -0.6334  0.0786  0.4198
 3517SOL    HW213840   1.843   1.856   3.141  1.0739 -0.6192  0.1174
 3517SOL    HW313841   1.811   1.802   3.004 -1.7534  0.4818  0.2588
 3517SOL    MW413842   1.833   1.868   3.056 -0.4646 -0.1620 -0.5520
 3518SOL     OW13843   2.302   5.817   0.707  0.0081  0.0613 -0.1093
 3518SOL    HW213844   2.378   5.860   0.669 -0.8744  1.1701 -0.6945
 3518SOL    HW313845   2.240   5.888   0.723 -1.2180 -0.9069 -0.4013
 3518SOL    MW413846   2.304   5.832   0.704 -0.5614 -0.4925 -0.1714
 3519SOL     OW13847   6.307   2.306   5.829 -0.1371  0.2795 -0.1496
 3519SOL    HW213848   6.401   2.321   5.823  0.3976 -2.7696 -1.0190
 3519SOL    HW313849   6.288   2.310   5.923  1.0326  0.0078  0.1052
 3519SOL    MW413850   6.317   2.309   5.841  0.1400  0.1441 -0.0336
 3520SOL     OW13851   2.360   6.200   1.561  0.1031  0.6240 -0.4252
 3520SOL    HW213852   2.453   6.220   1.571  0.5490 -0.9739 -1.0878
 3520SOL    HW313853   2.350   6.175   1.469 -0.7196 -0.4551 -0.0689
 3520SOL    MW413854   2.371   6.199   1.550  0.0756 -0.6786 -0.6559
 3521SOL     OW13855   6.006   4.230   4.861  0.1314 -0.1200 -0.3237
 3521SOL    HW213856   5.928   4.175   4.870  0.6434 -0.9582 -0.8604
 3521SOL    HW313857   5.986   4.309   4.911 -1.2768 -0.0762 -0.9209
 3521SOL    MW413858   5.993   4.233   4.869  0.0556  0.4289  0.1603
 3522SOL     OW13859   4.465   5.262   5.400 -0.0596 -0.3205  0.3225
 3522SOL    HW213860   4.464   5.313   5.481 -1.1459 -1.7703  1.2695
 3522SOL    HW313861   4.417   5.316   5.338 -0.7081  0.0773  1.1453
 3522SOL    MW413862   4.459   5.276   5.403 -0.2510 -0.1546  0.1163
 3523SOL     OW13863   6.123   1.589   3.673  0.2873 -0.0379 -0.2009
 3523SOL    HW213864   6.143   1.681   3.690  0.0743  0.0035 -0.1707
 3523SOL    HW313865   6.100   1.552   3.758  0.2871 -0.0986 -0.2266
 3523SOL    MW413866   6.123   1.596   3.686  0.5679 -0.3266 -0.4536
 3524SOL     OW13867   0.609   3.908   1.033 -0.1219 -0.2221 -0.2146
 3524SOL    HW213868   0.615   3.840   1.100 -2.1003 -0.9972 -0.7164
 3524SOL    HW313869   0.690   3.900   0.982  0.5232 -0.9174  0.8931
 3524SOL    MW413870   0.620   3.898   1.035 -0.4272 -0.2148 -0.6271
 3525SOL     OW13871   5.222   3.529   0.787  0.2761 -0.0525 -0.1293
 3525SOL    HW213872   5.245   3.498   0.699 -2.1985 -1.0547 -0.4907
 3525SOL    HW313873   5.209   3.450   0.838 -0.3992  0.4886  0.5539
 3525SOL    MW413874   5.223   3.515   0.782  0.5066  0.8438  0.0652
 3526SOL     OW13875   0.803   1.492   1.929  0.1736  0.2718 -0.6425
 3526SOL    HW213876   0.720   1.461   1.892  0.2840 -1.8104  0.6990
 3526SOL    HW313877   0.780   1.571   1.978 -1.0499 -0.3404 -0.1997
 3526SOL    MW413878   0.789   1.498   1.930 -0.3723 -0.4634 -0.3285
 3527SOL     OW13879   0.437   3.936   4.256 -0.2724  0.9278  0.2822
 3527SOL    HW213880   0.518   3.895   4.287 -0.6185 -0.5492 -0.6563
 3527SOL    HW313881   0.410   3.993   4.328  0.9170  0.4576  1.1408
 3527SOL    MW413882   0.444   3.938   4.270 -0.8088  0.3391 -0.1812
 3528SOL     OW13883   0.377   3.463   5.259 -0.0146 -0.0104 -0.5885
 3528SOL    HW213884   0.440   3.404   5.219 -0.6297 -1.5312  0.5892
 3528SOL    HW313885   0.358   3.528   5.192 -0.5931 -2.1100 -2.5759
 3528SOL    MW413886   0.383   3.464   5.245  0.4346  0.0560  0.5110
 3529SOL     OW13887   1.995   5.938   2.032 -0.6712  0.4319  0.3215
 3529SOL    HW213888   2.008   6.032   2.018 -2.0923  1.2149  3.4138
 3529SOL    HW313889   1.948   5.908   1.954 -0.2610  2.2697 -0.7016
 3529SOL    MW413890   1.991   5.947   2.020 -0.5623  0.1393  0.3087
 3530SOL     OW13891   3.543   2.961   1.752  0.1100  0.5117 -0.1310
 3530SOL    HW213892   3.487   3.031   1.786 -0.9309  0.6310 -1.9557
 3530SOL    HW313893   3.492   2.921   1.682  1.0160 -1.5615  0.3087
 3530SOL    MW413894   3.529   2.965   1.747  0.5383 -0.1173 -0.0667
 3531SOL     OW13895   5.741   2.451   6.291  0.0207 -0.2149 -0.4235
 3531SOL    HW213896   5.704   2.533   6.325  0.5030 -0.2888  0.2934
 3531SOL    HW313897   5.665   2.395   6.278 -0.1032 -0.7763  2.1170
 3531SOL    MW413898   5.726   2.455   6.294 -0.5145 -0.7713  0.3356
 3532SOL     OW13899   5.602   1.913   6.335 -0.3029  0.0501  0.4989
 3532SOL    HW213900   5.616   1.993   6.285  1.0971  0.4133  1.4079
 3532SOL    HW313901   5.647   1.929   6.418  0.3589 -1.8359  0.5396
 3532SOL    MW413902   5.610   1.926   6.339 -0.0828  0.2393  0.4493
 3533SOL     OW13903   4.739   5.688   5.431 -0.0942 -0.1972  0.1329
 3533SOL    HW213904   4.767   5.764   5.379  2.0930  0.9899  2.7820
 3533SOL    HW313905   4.818   5.658   5.476 -1.7057 -1.3279  2.4787
 3533SOL    MW413906   4.753   5.694   5.430  0.3787 -0.6565  0.3871
 3534SOL     OW13907   6.019   6.269   4.538  0.1141  0.3248  0.1010
 3534SOL    HW213908   6.039   6.210   4.466 -1.6781  0.7498 -0.8116
 3534SOL    HW313909   6.093   6.329   4.541  0.5639 -0.1590 -0.9059
 3534SOL    MW413910   6.031   6.269   4.529 -0.1859 -0.0080 -0.2999
 3535SOL     OW13911   6.363   4.429   0.447 -1.0127  0.0422  0.1572
 3535SOL    HW213912   6.369   4.362   0.516 -0.2582 -0.2116 -0.1369
 3535SOL    HW313913   6.372   4.380   0.365 -0.0051  0.5357 -0.0455
 3535SOL    MW413914   6.365   4.414   0.446  0.1254 -0.5372  0.4117
 3536SOL     OW13915   2.725   2.898   1.331 -0.0390  0.0130 -0.1627
 3536SOL    HW213916   2.680   2.937   1.256 -0.4391  1.2147  0.6799
 3536SOL    HW313917   2.686   2.941   1.407  1.3292 -0.1823  0.6710
 3536SOL    MW413918   2.714   2.909   1.331  0.7092 -0.3382 -0.3462
 3537SOL     OW13919   3.154   4.792   1.001 -1.1587 -0.5589  0.1724
 3537SOL    HW213920   3.131   4.864   0.942  0.1761 -0.7911 -0.6655
 3537SOL    HW313921   3.126   4.713   0.954 -0.0856 -0.7443 -0.1808
 3537SOL    MW413922   3.147   4.791   0.987 -0.4472  0.1260  0.5302
 3538SOL     OW13923   5.232   2.930   0.315 -0.0329  0.4624 -0.1665
 3538SOL    HW213924   5.230   3.026   0.315 -0.6103  0.5020 -2.3726
 3538SOL    HW313925   5.148   2.905   0.277  0.6589 -0.8658 -0.8785
 3538SOL    MW413926   5.220   2.939   0.310 -0.0357 -0.4616 -0.4039
 3539SOL     OW13927   4.879   2.969   3.563 -0.3276  0.0347 -0.4717
 3539SOL    HW213928   4.827   2.956   3.642  0.8265  1.1989  0.5229
 3539SOL    HW313929   4.896   2.881   3.530 -0.2809 -0.5198  0.9591
 3539SOL    MW413930   4.875   2.956   3.569  0.8141 -0.5046 -0.2919
 3540SOL     OW13931   4.067   2.698   5.305 -0.3101  0.2107 -0.1875
 3540SOL    HW213932   3.993   2.714   5.363 -1.0480  1.6807 -1.4377
 3540SOL    HW313933   4.030   2.646   5.233 -0.3856  1.6473 -1.2345
 3540SOL    MW413934   4.052   2.693   5.303  0.0709  0.3096  0.0965
 3541SOL     OW13935   4.271   1.159   2.125 -0.0249 -0.3244  0.4917
 3541SOL    HW213936   4.265   1.185   2.033 -2.0848  1.7167  1.1143
 3541SOL    HW313937   4.294   1.066   2.122 -1.3083 -0.6556 -2.1236
 3541SOL    MW413938   4.273   1.150   2.112  0.2390  0.7339  0.1794
 3542SOL     OW13939   0.346   3.096   1.461 -0.4162 -0.2606  0.2589
 3542SOL    HW213940   0.260   3.127   1.432 -0.3667 -0.3062  0.0614
 3542SOL    HW313941   0.392   3.074   1.380 -0.2358 -0.2827  0.3667
 3542SOL    MW413942   0.340   3.097   1.447 -0.3328  0.0233 -0.5239
 3543SOL     OW13943   4.171   1.822   0.674  0.2165  0.2620  0.5386
 3543SOL    HW213944   4.238   1.887   0.696  2.0423 -1.7534  1.3654
 3543SOL    HW313945   4.219   1.755   0.624 -1.8709  0.1479 -1.4638
 3543SOL    MW413946   4.186   1.821   0.670 -0.1544  0.2330  0.1693
 3544SOL     OW13947   4.602   2.685   1.000  0.0528 -0.1284 -0.1195
 3544SOL    HW213948   4.660   2.712   0.929 -0.4862  3.7607  0.6766
 3544SOL    HW313949   4.514   2.695   0.965 -0.1939  0.6216  0.6776
 3544SOL    MW413950   4.598   2.690   0.986 -0.1279 -0.0278  1.3482
 3545SOL     OW13951   3.862   1.047   0.288  0.7788  0.2855 -0.4738
 3545SOL    HW213952   3.881   1.135   0.320  1.8686 -0.2358  0.4016
 3545SOL    HW313953   3.946   1.001   0.295  0.6581 -0.3664 -2.4877
 3545SOL    MW413954   3.876   1.052   0.293  0.3448 -0.1049  0.4993
 3546SOL     OW13955   5.315   2.530   3.572  0.5599  0.3760  0.0270
 3546SOL    HW213956   5.377   2.543   3.644  0.7802 -1.6307  0.2676
 3546SOL    HW313957   5.350   2.455   3.524 -1.8370 -1.0844  0.3964
 3546SOL    MW413958   5.328   2.522   3.575  0.2736  0.1192  0.4604
 3547SOL     OW13959   3.109   1.508   2.857 -0.2096 -0.4720 -0.7640
 3547SOL    HW213960   3.162   1.588   2.857 -0.9665  0.0390 -0.6329
 3547SOL    HW313961   3.026   1.535   2.896 -0.2230 -1.4932 -0.0445
 3547SOL    MW413962   3.105   1.523   2.862  0.2650 -0.2526 -0.0894
 3548SOL     OW13963   2.279   3.375   3.611 -0.6543  0.0534 -0.2793
 3548SOL    HW213964   2.245   3.287   3.599 -0.9492  0.1396 -0.0855
 3548SOL    HW313965   2.353   3.365   3.671  0.8226 -0.3789 -2.0924
 3548SOL    MW413966   2.285   3.362   3.617  0.3032 -0.1692 -0.6160
 3549SOL     OW13967   6.347   2.336   2.472  0.1867  0.1300  0.2325
 3549SOL    HW213968   6.297   2.314   2.551 -0.4618 -0.6618 -0.3855
 3549SOL    HW313969   6.432   2.365   2.505  0.2938 -1.1951  1.1953
 3549SOL    MW413970   6.352   2.337   2.487  0.2262  0.6632 -0.5219
 3550SOL     OW13971   1.886   2.349   5.043 -0.1086 -0.7616  0.6990
 3550SOL    HW213972   1.827   2.422   5.059  0.4330 -0.4913  1.5946
 3550SOL    HW313973   1.965   2.372   5.092  1.1552 -0.6138 -1.3138
 3550SOL    MW413974   1.889   2.362   5.052 -0.2742 -0.0961 -0.1676
 3551SOL     OW13975   3.258   1.865   2.518  0.1900  0.1950  0.3218
 3551SOL    HW213976   3.350   1.848   2.496 -0.1460 -0.7222 -0.4092
 3551SOL    HW313977   3.215   1.780   2.511 -0.4608  0.3423  2.0205
 3551SOL    MW413978   3.265   1.852   2.514 -0.7659  0.7466  0.0996
 3552SOL     OW13979   0.712   0.707   4.605  0.1512  0.3854 -0.4504
 3552SOL    HW213980   0.807   0.716   4.615  0.4839 -1.3677 -1.6366
 3552SOL    HW313981   0.697   0.711   4.510 -0.8100 -0.5466 -0.3544
 3552SOL    MW413982   0.723   0.709   4.594 -0.4566 -0.8719 -0.2430
 3553SOL     OW13983   3.796   1.953   2.606  0.0182 -0.0538  0.3026
 3553SOL    HW213984   3.705   1.983   2.610 -0.6268 -1.7689 -0.2652
 3553SOL    HW313985   3.789   1.858   2.619  1.6741 -0.2844 -0.3561
 3553SOL    MW413986   3.783   1.944   2.608 -0.4137  0.2644 -0.0795
 3554SOL     OW13987   0.059   2.291   5.336 -0.0593 -0.2121 -0.3299
 3554SOL    HW213988   0.067   2.375   5.290 -1.1193 -0.3582 -0.8207
 3554SOL    HW313989  -0.034   2.285   5.358  0.3153 -0.3988  1.3862
 3554SOL    MW413990   0.048   2.302   5.333 -0.7475  0.0054 -0.5018
 3555SOL     OW13991   0.453   5.899   0.090  0.0142 -0.7200 -0.0035
 3555SOL    HW213992   0.424   5.876   0.002  0.4962  0.1837 -0.4086
 3555SOL    HW313993   0.534   5.948   0.078  0.7915 -1.6933  1.0243
 3555SOL    MW413994   0.460   5.903   0.077 -0.2297  0.0761 -0.0399
 3556SOL     OW13995   4.306   4.580   5.807 -0.3995  0.4035  0.3892
 3556SOL    HW213996   4.213   4.579   5.787 -0.7568  0.4578  1.9724
 3556SOL    HW313997   4.334   4.489   5.794 -0.6269  0.4178 -0.2403
 3556SOL    MW413998   4.298   4.568   5.803  0.4627  0.3658 -0.1968
 3557SOL     OW13999   3.047   5.109   6.133 -0.0650 -0.4859  0.3862
 3557SOL    HW214000   3.070   5.017   6.146  1.8624  0.0762  1.2001
 3557SOL    HW314001   3.096   5.157   6.199 -0.8444  1.1731 -0.1674
 3557SOL    MW414002   3.057   5.103   6.143 -0.0130  0.1323 -0.2944
 3558SOL     OW14003   1.489   1.821   5.529  0.1800 -0.3067 -0.0385
 3558SOL    HW214004   1.425   1.805   5.460  1.2041  0.3671 -1.1742
 3558SOL    HW314005   1.437   1.859   5.600 -0.7344 -0.0303 -0.8230
 3558SOL    MW414006   1.473   1.824   5.529 -0.2164  0.1031 -0.2867
 3559SOL     OW14007   1.326   5.394   3.874 -1.1786  0.2439  0.1078
 3559SOL    HW214008   1.371   5.316   3.843 -2.2655  0.0548 -1.0829
 3559SOL    HW314009   1.396   5.451   3.905  0.1292  0.6068 -3.1167
 3559SOL    MW414010   1.341   5.392   3.874  0.4565 -0.6711  0.4940
 3560SOL     OW14011   5.549   2.536   1.395 -0.5749 -0.0232 -0.0028
 3560SOL    HW214012   5.578   2.445   1.386 -1.5306 -0.3767  0.3039
 3560SOL    HW314013   5.615   2.587   1.348  1.2543 -0.6440  1.7130
 3560SOL    MW414014   5.562   2.531   1.388 -0.1473  0.5603 -0.3674
 3561SOL     OW14015   2.729   2.202   4.526 -0.0595 -0.6854 -0.3898
 3561SOL    HW214016   2.646   2.209   4.573  0.1419 -1.3402  0.0734
 3561SOL    HW314017   2.774   2.129   4.568  0.7263 -0.3736 -0.6766
 3561SOL    MW414018   2.724   2.193   4.538 -0.0574 -0.2422 -0.0825
 3562SOL     OW14019   0.207   5.910   3.045  0.1088  0.4162  0.6619
 3562SOL    HW214020   0.169   5.825   3.067  0.4978  0.0971  0.1152
 3562SOL    HW314021   0.290   5.912   3.093 -0.6425  1.1890  2.0036
 3562SOL    MW414022   0.213   5.899   3.055  0.3360 -0.3684  0.1323
 3563SOL     OW14023   4.254   0.036   6.338  0.3691 -0.4580 -0.8792
 3563SOL    HW214024   4.337   0.043   6.386  0.0128 -1.0751 -0.1635
 3563SOL    HW314025   4.274   0.071   6.251  1.3161 -0.3699 -0.6361
 3563SOL    MW414026   4.268   0.042   6.333  0.1201  0.1938  0.5272
 3564SOL     OW14027   5.325   3.569   3.191 -0.3910  0.0057 -0.5148
 3564SOL    HW214028   5.414   3.574   3.154  2.0022  1.4700  4.5288
 3564SOL    HW314029   5.288   3.655   3.173 -0.4255 -0.2645 -1.8098
 3564SOL    MW414030   5.332   3.581   3.184  0.2406 -0.0573 -0.3375
 3565SOL     OW14031   5.919   3.427   3.173 -0.1711 -1.0862 -0.2799
 3565SOL    HW214032   5.871   3.361   3.124  0.5609 -1.7957 -0.0613
 3565SOL    HW314033   5.961   3.482   3.107  0.5782 -1.8636 -0.4600
 3565SOL    MW414034   5.919   3.426   3.158  0.4741 -0.3437  0.3176
 3566SOL     OW14035   0.011   3.826   4.882 -0.1270  0.2331  0.5451
 3566SOL    HW214036  -0.081   3.814   4.905  0.1406  0.4240  1.7643
 3566SOL    HW314037   0.051   3.863   4.960  0.6692  1.7087 -0.5192
 3566SOL    MW414038   0.004   3.829   4.895  0.4850  0.1431 -0.2680
 3567SOL     OW14039   0.161   3.743   2.564 -0.1420 -0.2601  0.1812
 3567SOL    HW214040   0.135   3.674   2.625 -1.2841 -1.0649 -1.1526
 3567SOL    HW314041   0.079   3.785   2.539  0.5168  1.5257  0.8383
 3567SOL    MW414042   0.147   3.740   2.569 -0.5112  0.2706  0.1275
 3568SOL     OW14043   2.914   2.400   0.586 -0.2788 -0.4853  0.0247
 3568SOL    HW214044   2.860   2.467   0.626  0.1857  0.8257 -1.4455
 3568SOL    HW314045   2.934   2.339   0.657  0.6842  1.8120  1.8479
 3568SOL    MW414046   2.909   2.400   0.600  0.0385  0.1813 -0.0362
 3569SOL     OW14047   5.205   4.315   5.683  1.0223 -0.0345 -0.0635
 3569SOL    HW214048   5.283   4.358   5.718  1.0985  0.2093 -0.5357
 3569SOL    HW314049   5.239   4.243   5.630  0.9118 -0.2208  0.1157
 3569SOL    MW414050   5.220   4.311   5.681  0.7179 -0.2271 -0.4500
 3570SOL     OW14051   0.286   4.866   0.217 -0.3529 -0.0258 -0.2350
 3570SOL    HW214052   0.229   4.801   0.175 -1.5866 -0.6426  2.2565
 3570SOL    HW314053   0.228   4.916   0.274  1.2627  0.6667  0.8764
 3570SOL    MW414054   0.270   4.864   0.219 -0.6552  0.2849  0.2592
 3571SOL     OW14055   1.076   3.020   1.867 -0.5224  0.1945 -0.3179
 3571SOL    HW214056   0.999   3.070   1.839 -1.1797 -0.4398  0.2944
 3571SOL    HW314057   1.043   2.930   1.876  0.0178  0.1129  1.0213
 3571SOL    MW414058   1.061   3.014   1.865  0.1431  0.2709  0.4489
 3572SOL     OW14059   4.958   1.781   1.074 -0.2050 -0.2220 -0.3394
 3572SOL    HW214060   5.043   1.806   1.110 -0.5044 -1.4218  1.3226
 3572SOL    HW314061   4.971   1.692   1.041 -0.7786 -0.3666 -0.1840
 3572SOL    MW414062   4.971   1.772   1.074  0.0206 -0.2155  0.0959
 3573SOL     OW14063   2.865   1.959   0.406 -0.5092  0.2834  0.6212
 3573SOL    HW214064   2.832   1.921   0.488  1.1952 -1.4976  0.5677
 3573SOL    HW314065   2.952   1.921   0.396 -0.3153  1.1617 -1.5707
 3573SOL    MW414066   2.872   1.949   0.415 -0.2824  0.2608  0.0512
 3574SOL     OW14067   5.040   4.193   4.553 -0.2068  0.4784  0.2842
 3574SOL    HW214068   5.058   4.106   4.516  2.4367  0.8694  0.4879
 3574SOL    HW314069   5.018   4.175   4.644 -0.1170 -0.0039  0.2169
 3574SOL    MW414070   5.039   4.179   4.560  0.0751  0.0929 -0.0885
 3575SOL     OW14071   4.826   4.714   2.519  0.0430 -0.2839 -0.3604
 3575SOL    HW214072   4.760   4.743   2.456 -0.7697 -0.2458  0.4839
 3575SOL    HW314073   4.826   4.619   2.511  0.4201 -0.2414 -0.8838
 3575SOL    MW414074   4.817   4.706   2.510 -0.8958  0.0997 -0.3215
 3576SOL     OW14075   2.204   1.905   3.179 -0.2864 -0.2905  1.0566
 3576SOL    HW214076   2.138   1.951   3.127 -0.1844  0.5313  1.6348
 3576SOL    HW314077   2.183   1.928   3.270  0.5284 -0.3690  1.2742
 3576SOL    MW414078   2.192   1.914   3.184 -0.1051  0.1746 -0.0598
 3577SOL     OW14079   5.639   3.617   5.166  0.3900 -0.2713  0.0926
 3577SOL    HW214080   5.619   3.539   5.115  0.0375 -0.1842  0.0965
 3577SOL    HW314081   5.592   3.688   5.122  1.8954  0.2217 -0.7945
 3577SOL    MW414082   5.630   3.616   5.154  0.6618 -0.2511 -0.0204
 3578SOL     OW14083   4.133   4.023   0.466 -0.2429  0.1224 -0.2338
 3578SOL    HW214084   4.160   3.955   0.527  0.5549  0.8937  0.3012
 3578SOL    HW314085   4.082   4.084   0.520  1.7004  1.5834  0.0350
 3578SOL    MW414086   4.130   4.022   0.481 -0.0014 -0.1941  0.2265
 3579SOL     OW14087   2.094   3.120   1.443  0.3120 -0.0908 -0.0596
 3579SOL    HW214088   2.076   3.142   1.534  1.3008  0.9546 -0.0910
 3579SOL    HW314089   2.067   3.197   1.393 -0.5065 -0.7663 -0.7065
 3579SOL    MW414090   2.088   3.133   1.448 -0.4282  0.0677  0.3860
 3580SOL     OW14091   2.993   6.389   4.920 -0.4225  0.3576  0.2286
 3580SOL    HW214092   3.072   6.379   4.973 -0.7473  0.9458  0.8436
 3580SOL    HW314093   2.940   6.453   4.968 -1.0227  0.3942 -0.4649
 3580SOL    MW414094   2.997   6.396   4.934 -0.1586  0.1662  0.8212
 3581SOL     OW14095   0.436   1.280   5.873  1.0407 -0.3719  0.0731
 3581SOL    HW214096   0.393   1.292   5.788 -0.0984 -0.0406  0.6626
 3581SOL    HW314097   0.485   1.198   5.865 -0.9379 -1.6055 -0.1933
 3581SOL    MW414098   0.436   1.271   5.861 -0.3210  0.2549  0.0591
 3582SOL     OW14099   2.016   0.800   4.692  0.1464 -0.1732  0.0068
 3582SOL    HW214100   2.042   0.717   4.732  0.6223 -0.5758 -1.1081
 3582SOL    HW314101   2.066   0.866   4.739 -0.5484 -0.4569  1.1922
 3582SOL    MW414102   2.026   0.798   4.704  0.1990  0.1243 -0.5926
 3583SOL     OW14103   1.324   4.148   2.641  0.1339 -0.0449 -0.0173
 3583SOL    HW214104   1.407   4.161   2.687 -0.5312  1.1870  0.8680
 3583SOL    HW314105   1.328   4.057   2.611  0.8288 -0.7379  2.0005
 3583SOL    MW414106   1.336   4.138   2.643  0.7246  0.6993  0.2845
 3584SOL     OW14107   1.380   1.517   4.573 -0.1214  0.2024 -0.3437
 3584SOL    HW214108   1.307   1.515   4.511 -0.3459 -2.4928 -0.1436
 3584SOL    HW314109   1.345   1.479   4.654  1.2164 -0.2786  0.0501
 3584SOL    MW414110   1.366   1.512   4.575 -0.3998 -0.1098  0.2481
 3585SOL     OW14111   3.689   0.456   0.553 -0.3567 -0.1822  0.0181
 3585SOL    HW214112   3.783   0.453   0.535 -0.4232 -2.9030 -0.2343
 3585SOL    HW314113   3.675   0.389   0.619 -2.0172  0.9030  0.8470
 3585SOL    MW414114   3.699   0.447   0.560 -0.7376 -0.1270 -0.0861
 3586SOL     OW14115   5.185   2.678   3.871  0.1512 -0.4213 -0.1021
 3586SOL    HW214116   5.229   2.728   3.803 -0.2411  0.0194 -0.0390
 3586SOL    HW314117   5.238   2.599   3.881  1.1942  0.3038  0.3001
 3586SOL    MW414118   5.198   2.674   3.863 -0.2014 -0.0109  0.2794
 3587SOL     OW14119   4.848   1.623   0.742 -0.1890 -0.0320  0.0528
 3587SOL    HW214120   4.765   1.576   0.752 -1.7334  1.7536 -2.8836
 3587SOL    HW314121   4.903   1.564   0.691  0.0410 -0.8687  1.2465
 3587SOL    MW414122   4.845   1.609   0.736 -0.5088 -0.6893 -0.4656
 3588SOL     OW14123   6.380   5.414   6.076  0.3306  0.3745 -0.1417
 3588SOL    HW214124   6.463   5.418   6.029  1.5532 -0.5873  1.8088
 3588SOL    HW314125   6.366   5.321   6.093  0.0063  0.6868  1.4807
 3588SOL    MW414126   6.389   5.402   6.072  0.1384  0.7013 -0.3433
 3589SOL     OW14127   4.617   5.644   5.751  0.0810 -0.6644 -0.1227
 3589SOL    HW214128   4.701   5.598   5.758 -0.9067 -2.3699  1.1453
 3589SOL    HW314129   4.622   5.690   5.667  3.4556  1.7529  1.1464
 3589SOL    MW414130   4.629   5.644   5.741 -0.1045 -0.1411  0.0999
 3590SOL     OW14131   4.965   2.230   2.836  0.2443  0.1452  0.0634
 3590SOL    HW214132   4.919   2.190   2.910  0.4171 -1.2123 -0.5172
 3590SOL    HW314133   4.896   2.245   2.771  0.2951  0.0668 -0.0090
 3590SOL    MW414134   4.950   2.226   2.837  0.0477  0.4154 -0.0194
 3591SOL     OW14135   5.728   0.024   4.207 -0.2991  0.5454  0.1185
 3591SOL    HW214136   5.765   0.112   4.199 -0.5451  0.8825  2.2871
 3591SOL    HW314137   5.636   0.038   4.230 -0.4041 -0.2796  0.2368
 3591SOL    MW414138   5.721   0.037   4.209  0.6185 -0.0306  0.2872
 3592SOL     OW14139   1.809   5.762   3.795  0.0036 -0.2931  0.5548
 3592SOL    HW214140   1.773   5.783   3.709  2.4526 -0.9405 -0.7237
 3592SOL    HW314141   1.835   5.670   3.788  0.1251 -0.3891  2.0456
 3592SOL    MW414142   1.807   5.753   3.783 -0.0384  0.3699  0.6960
 3593SOL     OW14143   5.594   3.628   5.901 -0.1418  0.3970  0.4093
 3593SOL    HW214144   5.671   3.597   5.948 -0.7989 -0.3789  1.0007
 3593SOL    HW314145   5.590   3.722   5.919  0.4584  0.3716  0.6694
 3593SOL    MW414146   5.603   3.636   5.909  0.0912  0.3308  0.4944
 3594SOL     OW14147   2.445   3.056   4.546  0.6555 -0.1194  0.1930
 3594SOL    HW214148   2.462   2.982   4.603  1.2823  1.0694  1.6212
 3594SOL    HW314149   2.351   3.074   4.557  1.0226  0.9542  2.0155
 3594SOL    MW414150   2.435   3.049   4.555  0.1678 -0.1354  0.0876
 3595SOL     OW14151   5.177   5.065   0.832  0.1295 -0.4371 -0.6820
 3595SOL    HW214152   5.138   5.005   0.896 -1.5896  0.3709 -0.9380
 3595SOL    HW314153   5.197   5.144   0.882  1.8442 -0.9502 -0.4777
 3595SOL    MW414154   5.175   5.067   0.847  0.2004 -0.4476 -0.1049
 3596SOL     OW14155   3.460   5.793   0.249 -0.0865 -0.3491 -0.3097
 3596SOL    HW214156   3.500   5.829   0.328 -1.2124 -0.1441  0.1820
 3596SOL    HW314157   3.376   5.759   0.278 -0.1610 -1.0231 -1.2729
 3596SOL    MW414158   3.454   5.793   0.263  0.5488  0.5758  0.4546
 3597SOL     OW14159   3.168   6.123   1.469  0.0989  0.0918 -0.5145
 3597SOL    HW214160   3.179   6.028   1.467  0.4940  0.0989  0.5694
 3597SOL    HW314161   3.103   6.138   1.538  1.6575  0.7179  0.8835
 3597SOL    MW414162   3.161   6.112   1.478 -0.4618 -0.3886 -0.3083
 3598SOL     OW14163   5.896   4.486   0.166  0.0532 -0.0783  0.4781
 3598SOL    HW214164   5.896   4.468   0.260  0.9660  1.9761  0.9132
 3598SOL    HW314165   5.821   4.544   0.152  1.4777  1.8906  0.4867
 3598SOL    MW414166   5.886   4.491   0.176 -0.0705 -0.0279 -0.5188
 3599SOL     OW14167   0.917   1.749   5.130  0.6344  0.2176 -0.2004
 3599SOL    HW214168   0.903   1.843   5.122  1.6154  0.4421  0.5292
 3599SOL    HW314169   0.832   1.713   5.154  0.1644  0.8584 -0.8692
 3599SOL    MW414170   0.904   1.757   5.132  0.4332 -0.0409 -0.6002
 3600SOL     OW14171   0.616   5.000   1.921  0.2282  0.3754  0.3090
 3600SOL    HW214172   0.615   4.989   1.826 -0.6139 -1.9635  0.5352
 3600SOL    HW314173   0.704   4.972   1.947 -0.1907 -0.9428  0.3751
 3600SOL    MW414174   0.627   4.995   1.912  0.0337  0.2628 -0.0709
 3601SOL     OW14175   4.370   4.531   3.434 -0.0608 -0.0088  0.1747
 3601SOL    HW214176   4.317   4.505   3.359 -0.3939 -0.1268  0.4506
 3601SOL    HW314177   4.402   4.619   3.412  0.5994 -0.4118 -0.5065
 3601SOL    MW414178   4.367   4.540   3.421  0.0949 -0.1284  0.9045
 3602SOL     OW14179   1.837   6.283   5.334  0.4406  0.5629  0.2607
 3602SOL    HW214180   1.789   6.213   5.379  1.1626  0.4095  0.8147
 3602SOL    HW314181   1.918   6.241   5.305  0.3408  0.8681 -0.4915
 3602SOL    MW414182   1.841   6.268   5.336 -0.5757  0.1393 -0.3865
 3603SOL     OW14183   2.879   2.652   0.820  0.4702 -0.3114  0.1953
 3603SOL    HW214184   2.925   2.708   0.882  1.8915 -1.5675  0.3306
 3603SOL    HW314185   2.798   2.627   0.866 -0.2237  1.6269  0.0955
 3603SOL    MW414186   2.874   2.656   0.834 -0.1703  0.2416 -0.0980
 3604SOL     OW14187   0.286   2.515   1.132  0.0160  0.1652  0.9306
 3604SOL    HW214188   0.289   2.504   1.037  0.4921 -1.6343  1.1118
 3604SOL    HW314189   0.198   2.486   1.156 -0.3067  1.1764  0.9933
 3604SOL    MW414190   0.275   2.509   1.122  0.1861 -0.4395  0.1057
 3605SOL     OW14191   2.466   3.741   2.283 -0.4985 -0.4567  0.0254
 3605SOL    HW214192   2.503   3.703   2.363  0.1788 -0.6852 -0.3880
 3605SOL    HW314193   2.537   3.737   2.219 -0.5836  0.9593 -0.2068
 3605SOL    MW414194   2.480   3.736   2.285 -0.4174 -0.7374  0.0140
 3606SOL     OW14195   2.890   5.649   0.225 -0.0774 -0.0554  0.0784
 3606SOL    HW214196   2.876   5.732   0.271 -0.6168 -0.6791  1.0454
 3606SOL    HW314197   2.813   5.596   0.245 -0.6697 -0.1201 -2.0730
 3606SOL    MW414198   2.878   5.653   0.233  0.5007  0.5455  0.2281
 3607SOL     OW14199   5.168   1.211   4.111  0.1588 -0.1673 -0.3035
 3607SOL    HW214200   5.260   1.229   4.094  1.0475 -3.6947  0.1396
 3607SOL    HW314201   5.143   1.276   4.178  2.5435  0.3444  0.1788
 3607SOL    MW414202   5.177   1.222   4.118 -0.3380 -0.3027 -0.5192
 3608SOL     OW14203   5.190   5.525   4.542  0.1958 -0.2921 -0.2200
 3608SOL    HW214204   5.155   5.602   4.586 -0.0261 -0.8116  0.5223
 3608SOL    HW314205   5.232   5.560   4.463 -1.2038  0.4303 -0.6762
 3608SOL    MW414206   5.191   5.540   4.537  0.0931  0.3552  0.3668
 3609SOL     OW14207   6.047   0.703   5.600  0.0735  0.4852 -0.1248
 3609SOL    HW214208   6.076   0.613   5.612 -1.1082  0.1310  0.2044
 3609SOL    HW314209   5.987   0.700   5.526 -0.1158  0.9744  0.0047
 3609SOL    MW414210   6.043   0.691   5.592 -0.5869  0.6591 -0.1313
 3610SOL     OW14211   6.372   3.901   2.509  0.3978  0.1304  0.2431
 3610SOL    HW214212   6.333   3.816   2.492  0.6554  0.1235 -0.3147
 3610SOL    HW314213   6.340   3.925   2.596  0.1966 -0.4589  0.3322
 3610SOL    MW414214   6.362   3.893   2.519  0.3424 -0.2834  0.2688
 3611SOL     OW14215   1.484   1.267   4.512  0.3248  0.5046  0.0129
 3611SOL    HW214216   1.450   1.350   4.545 -1.2746 -0.0760 -0.0682
 3611SOL    HW314217   1.558   1.247   4.569  0.3329  1.6707  0.4376
 3611SOL    MW414218   1.489   1.275   4.524 -0.1445  0.2112 -0.2714
 3612SOL     OW14219   4.391   4.967   1.415  0.5121  0.2201  0.2054
 3612SOL    HW214220   4.364   5.000   1.329 -0.9616  1.0041  0.9168
 3612SOL    HW314221   4.322   4.905   1.439  1.2814 -0.5263  0.5436
 3612SOL    MW414222   4.378   4.963   1.407  0.1403  0.0996 -0.2071
 3613SOL     OW14223   4.365   0.281   5.445 -0.2934  0.3672  0.3766
 3613SOL    HW214224   4.355   0.374   5.427 -1.3656  0.0048 -1.0925
 3613SOL    HW314225   4.296   0.239   5.393  0.4118 -1.2682  0.7042
 3613SOL    MW414226   4.354   0.287   5.436  0.4066  0.5071 -0.5068
 3614SOL     OW14227   1.938   4.951   2.766  0.6365 -0.0293  0.5602
 3614SOL    HW214228   1.916   5.020   2.829  2.1133  1.7540 -0.7615
 3614SOL    HW314229   1.859   4.940   2.713  0.7824  1.7030 -0.0919
 3614SOL    MW414230   1.925   4.959   2.767  0.2381 -0.2755 -0.6284
 3615SOL     OW14231   0.029   2.853   5.701 -0.0405  0.0580 -0.3236
 3615SOL    HW214232   0.050   2.946   5.712 -1.2685  0.1766  1.4564
 3615SOL    HW314233  -0.060   2.854   5.663  0.3009 -0.4134 -1.1675
 3615SOL    MW414234   0.020   2.866   5.697  0.1401  0.0728 -0.5475
 3616SOL     OW14235   3.368   2.393   6.317 -0.1196  0.3256  0.7309
 3616SOL    HW214236   3.403   2.419   6.232  0.7955  0.0247  1.0029
 3616SOL    HW314237   3.410   2.309   6.336 -1.1490 -0.1442  0.9945
 3616SOL    MW414238   3.378   2.386   6.308  0.9570  0.2682  0.3722
 3617SOL     OW14239   3.034   5.981   5.886  0.0578 -0.5646  0.1996
 3617SOL    HW214240   3.123   5.965   5.855 -0.3343  0.4475 -1.5713
 3617SOL    HW314241   3.034   6.074   5.910 -0.7233 -0.3389 -0.6209
 3617SOL    MW414242   3.046   5.992   5.885 -0.1591 -0.1966 -0.0327
 3618SOL     OW14243   1.888   6.362   2.199 -0.0540 -0.2458 -0.0060
 3618SOL    HW214244   1.935   6.310   2.264  0.5994  0.7384  0.3247
 3618SOL    HW314245   1.803   6.380   2.239  0.9147  1.7307  1.3252
 3618SOL    MW414246   1.883   6.358   2.213 -0.0877  0.6140  0.5264
 3619SOL     OW14247   0.676   2.255   3.253 -0.3909  0.2048 -0.1030
 3619SOL    HW214248   0.602   2.196   3.263 -0.0137 -0.3051 -0.2300
 3619SOL    HW314249   0.638   2.342   3.243 -0.9956 -0.1470 -0.8935
 3619SOL    MW414250   0.661   2.259   3.253  0.4777 -0.1247 -0.1238
 3620SOL     OW14251   4.793   3.538   2.645  0.2266  0.0224  0.5698
 3620SOL    HW214252   4.796   3.444   2.665 -0.1556 -0.2111 -0.3997
 3620SOL    HW314253   4.699   3.556   2.632  0.3881  0.3087 -0.2537
 3620SOL    MW414254   4.781   3.528   2.646  0.3783  0.0633 -0.6616
 3621SOL     OW14255   4.639   6.148   1.012 -0.6606  0.2918  0.5694
 3621SOL    HW214256   4.573   6.084   0.985 -0.0606 -0.6779  1.3073
 3621SOL    HW314257   4.603   6.188   1.091 -1.1658  1.1019 -0.0533
 3621SOL    MW414258   4.626   6.145   1.019 -0.3134 -0.0822  0.3738
 3622SOL     OW14259   5.984   0.607   6.297  0.2550  0.0244  0.2320
 3622SOL    HW214260   6.061   0.590   6.352  1.0132  1.3960 -0.3425
 3622SOL    HW314261   5.960   0.522   6.262  2.0266 -0.3469 -0.2103
 3622SOL    MW414262   5.991   0.594   6.300  0.1804 -0.1986 -0.1583
 3623SOL     OW14263   5.509   0.036   0.204 -0.2491  0.7054 -0.1700
 3623SOL    HW214264   5.571  -0.031   0.175 -1.4380 -0.1950 -0.6890
 3623SOL    HW314265   5.467   0.067   0.124 -1.0188  0.7520  0.2453
 3623SOL    MW414266   5.512   0.031   0.190 -0.0783 -0.4802 -0.1057
 3624SOL     OW14267   1.492   3.474   3.108 -0.4791  0.1806 -0.3315
 3624SOL    HW214268   1.544   3.433   3.039  0.4094  0.5495  0.1051
 3624SOL    HW314269   1.460   3.400   3.161  1.8987 -0.0022  1.0169
 3624SOL    MW414270   1.495   3.459   3.106 -0.3382  0.3135  0.0400
 3625SOL     OW14271   0.169   0.013   4.825  0.0251  0.2836 -0.6079
 3625SOL    HW214272   0.220   0.044   4.750  1.1131  1.4240  0.5532
 3625SOL    HW314273   0.175  -0.082   4.821  1.2711  0.3709 -1.1675
 3625SOL    MW414274   0.176   0.005   4.814  0.1640  0.1501  0.1019
 3626SOL     OW14275   3.186   3.209   1.514 -0.6963 -0.4902  0.1248
 3626SOL    HW214276   3.274   3.174   1.526 -1.4739 -2.3529  0.7845
 3626SOL    HW314277   3.128   3.138   1.544 -2.3929  1.0966  0.7672
 3626SOL    MW414278   3.190   3.195   1.520  0.8832  0.3259  0.2302
 3627SOL     OW14279   3.541   6.052   3.668  0.2753 -0.4930 -0.1647
 3627SOL    HW214280   3.452   6.088   3.670  0.8487  1.0163  0.1750
 3627SOL    HW314281   3.529   5.958   3.656 -1.3342 -0.2267 -0.9580
 3627SOL    MW414282   3.527   6.044   3.667 -0.0875  0.7105  0.4405
 3628SOL     OW14283   1.706   4.904   5.086 -0.6262  0.7112  0.5862
 3628SOL    HW214284   1.616   4.879   5.110 -0.4992 -0.1711  0.1395
 3628SOL    HW314285   1.700   4.931   4.994 -0.3150  0.0607  0.3764
 3628SOL    MW414286   1.693   4.905   5.077 -0.6582 -0.9519  0.1431
 3629SOL     OW14287   5.129   2.061   2.518  0.2470  0.2692  0.4757
 3629SOL    HW214288   5.118   2.156   2.508 -2.8936 -0.1269 -1.1741
 3629SOL    HW314289   5.057   2.034   2.574  0.3068 -1.2775 -0.1350
 3629SOL    MW414290   5.118   2.070   2.524 -0.5424  0.0372 -0.0278
 3630SOL     OW14291   4.868   4.418   4.834 -0.3816 -0.3083 -0.1853
 3630SOL    HW214292   4.785   4.426   4.880  0.5975 -0.4220  1.7290
 3630SOL    HW314293   4.876   4.499   4.784 -1.9326 -0.6007 -0.9441
 3630SOL    MW414294   4.858   4.430   4.834 -0.0148 -0.2919 -0.1154
 3631SOL     OW14295   4.768   5.566   2.924  0.6691  0.1462  0.0040
 3631SOL    HW214296   4.719   5.643   2.955 -0.4711 -1.2009  1.7775
 3631SOL    HW314297   4.787   5.517   3.004  0.3430 -2.0029 -1.1744
 3631SOL    MW414298   4.764   5.570   2.939  0.2303 -0.4160  0.4601
 3632SOL     OW14299   2.820   1.117   3.492  0.1392  0.0602 -1.0946
 3632SOL    HW214300   2.805   1.108   3.398 -1.0738 -0.2746 -0.8786
 3632SOL    HW314301   2.739   1.086   3.532 -0.2053  2.2222  0.0024
 3632SOL    MW414302   2.807   1.112   3.485 -0.5690  0.1857 -0.5981
 3633SOL     OW14303   0.584   2.308   4.232 -0.5868 -0.0884 -0.0633
 3633SOL    HW214304   0.550   2.356   4.308  1.9619 -0.5728  1.5059
 3633SOL    HW314305   0.673   2.341   4.221  0.0007 -1.9028 -1.1754
 3633SOL    MW414306   0.591   2.319   4.241 -0.9246  0.1231  0.2040
 3634SOL     OW14307   4.888   6.327   3.435  0.1280  0.1201  0.4627
 3634SOL    HW214308   4.959   6.390   3.422  0.6934 -0.5670  0.1906
 3634SOL    HW314309   4.929   6.255   3.483 -0.5655  0.0521  0.9639
 3634SOL    MW414310   4.903   6.326   3.440  0.2799 -0.1985 -0.2393
 3635SOL     OW14311   5.751   2.340   5.632  0.6153  0.7370 -0.0917
 3635SOL    HW214312   5.722   2.410   5.573  0.7437  0.6816 -0.2177
 3635SOL    HW314313   5.825   2.378   5.679  2.0752 -0.0378 -1.6736
 3635SOL    MW414314   5.757   2.354   5.631 -0.0535  0.0777  0.8585
 3636SOL     OW14315   4.281   1.557   2.690 -0.2662  0.1113 -0.1671
 3636SOL    HW214316   4.199   1.551   2.641 -0.0410  2.8117 -1.0660
 3636SOL    HW314317   4.256   1.542   2.781 -1.8712  1.2827 -0.3670
 3636SOL    MW414318   4.267   1.555   2.696  0.3880 -0.5649  0.4356
 3637SOL     OW14319   2.736   0.671   4.290  0.0818  0.2119 -0.6301
 3637SOL    HW214320   2.695   0.639   4.370 -0.3947  1.9798 -0.1285
 3637SOL    HW314321   2.711   0.607   4.223 -0.3077 -0.7718  0.4278
 3637SOL    MW414322   2.727   0.658   4.292 -0.1405  0.4298  0.3900
 3638SOL     OW14323   2.531   1.014   4.386  0.3084 -0.1838 -0.1706
 3638SOL    HW214324   2.571   0.984   4.305 -0.4868 -3.2156  0.4250
 3638SOL    HW314325   2.604   1.018   4.449  0.3359 -1.7699 -0.0747
 3638SOL    MW414326   2.546   1.011   4.384  0.0274  0.4689  0.4568
 3639SOL     OW14327   2.518   1.666   3.378  0.3992  0.0550 -0.1119
 3639SOL    HW214328   2.481   1.690   3.463  0.3678 -2.2178  0.5849
 3639SOL    HW314329   2.448   1.617   3.335  0.8578  0.0990 -0.9109
 3639SOL    MW414330   2.504   1.662   3.384 -0.0034  0.0699 -0.3264
 3640SOL     OW14331   3.689   1.449   1.513 -0.0650 -0.3327 -0.5117
 3640SOL    HW214332   3.735   1.504   1.448  0.2341 -1.3742 -1.2090
 3640SOL    HW314333   3.597   1.457   1.489 -0.0545  0.0979 -0.4235
 3640SOL    MW414334   3.683   1.458   1.501  0.3689 -0.1582 -0.3614
 3641SOL     OW14335   2.560   5.938   0.644 -0.4504 -0.2143 -0.0804
 3641SOL    HW214336   2.622   5.870   0.617 -1.6516 -1.2775 -0.2601
 3641SOL    HW314337   2.558   5.932   0.740  1.6370  1.6028  0.1546
 3641SOL    MW414338   2.568   5.928   0.653  0.2834  0.2807 -0.1993
 3642SOL     OW14339   0.531   2.354   0.398  0.2265  0.6482 -0.2526
 3642SOL    HW214340   0.464   2.415   0.427  0.9477  1.2960  0.0907
 3642SOL    HW314341   0.602   2.364   0.461  0.0679 -1.1168  0.2725
 3642SOL    MW414342   0.532   2.363   0.410 -0.3529  0.0705 -0.7629
 3643SOL     OW14343   4.483   4.156   6.008 -0.1381 -0.6941 -0.1876
 3643SOL    HW214344   4.566   4.176   6.052 -0.1887 -1.2515  0.1776
 3643SOL    HW314345   4.426   4.231   6.029 -0.3257 -1.1898  1.1472
 3643SOL    MW414346   4.486   4.169   6.017 -0.0387 -0.3290  0.0207
 3644SOL     OW14347   2.370   1.601   6.041 -0.2108  0.3787  0.1504
 3644SOL    HW214348   2.402   1.521   5.999 -0.0906  0.6665 -0.3117
 3644SOL    HW314349   2.432   1.616   6.113  1.5244  1.6244 -1.4919
 3644SOL    MW414350   2.383   1.593   6.045 -0.3901 -0.2610  0.1051
 3645SOL     OW14351   0.637   2.487   4.746  0.2179 -0.3394  0.3554
 3645SOL    HW214352   0.613   2.500   4.838  1.9926 -1.2995  1.0151
 3645SOL    HW314353   0.615   2.569   4.704 -0.1341  0.3277  1.7634
 3645SOL    MW414354   0.631   2.499   4.753  0.1450 -0.1104 -0.1513
 3646SOL     OW14355   5.147   3.545   1.627  0.0833 -0.0205 -0.3331
 3646SOL    HW214356   5.125   3.584   1.712 -1.5884 -0.2554 -0.6280
 3646SOL    HW314357   5.177   3.457   1.648  4.4179  1.3391  0.3993
 3646SOL    MW414358   5.148   3.539   1.641 -0.0269  0.8986 -0.2060
 3647SOL     OW14359   5.580   6.338   4.899  0.0322  0.2080  0.0252
 3647SOL    HW214360   5.600   6.380   4.983  0.0815 -0.0541  0.1439
 3647SOL    HW314361   5.577   6.245   4.918 -1.4904  0.2494  0.0429
 3647SOL    MW414362   5.583   6.331   4.912  0.1343  0.2963  0.3804
 3648SOL     OW14363   0.372   5.309   5.194 -0.3605 -0.4325 -0.3193
 3648SOL    HW214364   0.426   5.296   5.115  0.0886 -1.3497  0.1246
 3648SOL    HW314365   0.343   5.400   5.188 -1.4134 -0.8281 -2.2186
 3648SOL    MW414366   0.376   5.319   5.183  0.1682 -0.2993  0.4515
 3649SOL     OW14367   2.699   4.373   6.013 -0.2905  0.0022  0.0397
 3649SOL    HW214368   2.632   4.327   5.964 -1.7657 -0.1537  2.0719
 3649SOL    HW314369   2.652   4.444   6.058  1.6033  2.4803 -1.6083
 3649SOL    MW414370   2.684   4.377   6.013  0.1364  0.2807  0.0731
 3650SOL     OW14371   0.271   5.212   6.167 -0.3051  0.0406  0.3028
 3650SOL    HW214372   0.225   5.257   6.096  0.8823  2.0529  0.7057
 3650SOL    HW314373   0.364   5.231   6.150  0.1473 -1.2002  1.2536
 3650SOL    MW414374   0.278   5.221   6.155 -0.5101 -0.1536 -0.0414
 3651SOL     OW14375   2.192   2.352   3.333 -1.0414  0.1686  0.1759
 3651SOL    HW214376   2.140   2.275   3.353  2.4159 -1.5310  4.0703
 3651SOL    HW314377   2.212   2.344   3.240 -3.4153 -1.8107 -0.2519
 3651SOL    MW414378   2.188   2.341   3.323 -0.2557 -0.2116  0.2973
 3652SOL     OW14379   4.249   0.654   6.129 -0.3809 -0.0234  0.1073
 3652SOL    HW214380   4.260   0.727   6.189  2.1493  0.5841 -1.0111
 3652SOL    HW314381   4.337   0.629   6.103 -1.1796 -3.0360 -0.1223
 3652SOL    MW414382   4.262   0.660   6.133 -0.5391  0.3200 -0.0412
 3653SOL     OW14383   0.362   0.489   2.918 -0.9963  0.1242 -0.7272
 3653SOL    HW214384   0.418   0.451   2.985 -1.6956 -0.4206 -0.4327
 3653SOL    HW314385   0.386   0.581   2.914 -1.2773  0.2726  0.6189
 3653SOL    MW414386   0.372   0.496   2.926  0.3544 -0.1777 -0.1456
 3654SOL     OW14387   5.895   5.578   0.550 -0.5241 -0.0660 -0.2471
 3654SOL    HW214388   5.835   5.580   0.625 -1.2793  2.0603 -0.8541
 3654SOL    HW314389   5.873   5.498   0.503 -2.4000  0.3015 -0.0434
 3654SOL    MW414390   5.884   5.568   0.554 -0.3667  0.5047 -0.4515
 3655SOL     OW14391   1.159   6.416   3.488 -0.3092  0.0197 -0.0332
 3655SOL    HW214392   1.237   6.363   3.471  0.1847  0.5242  0.6023
 3655SOL    HW314393   1.121   6.377   3.567  0.7266  1.3190  1.1513
 3655SOL    MW414394   1.164   6.404   3.496 -0.2814 -0.3947  0.4692
 3656SOL     OW14395   5.759   4.720   1.045 -0.5990  0.4117  0.1570
 3656SOL    HW214396   5.796   4.631   1.049 -0.8322  0.3528  1.0472
 3656SOL    HW314397   5.669   4.710   1.074 -1.3451  0.5763 -1.8910
 3656SOL    MW414398   5.752   4.707   1.049 -0.1073 -0.6234  0.0762
 3657SOL     OW14399   5.601   0.927   0.140 -0.2457  0.2262  0.1256
 3657SOL    HW214400   5.525   0.985   0.134 -1.0241 -0.7932 -0.1744
 3657SOL    HW314401   5.569   0.842   0.109  1.0910 -0.1605 -0.2696
 3657SOL    MW414402   5.586   0.923   0.135 -0.4830  0.3544  0.0852
 3658SOL     OW14403   3.573   2.800   3.138  0.2676  0.6034 -0.5820
 3658SOL    HW214404   3.514   2.863   3.180  0.0614  1.0128 -1.4617
 3658SOL    HW314405   3.564   2.817   3.045  2.5368  1.3829 -0.7225
 3658SOL    MW414406   3.564   2.811   3.132  0.0518 -0.6248 -0.2604
 3659SOL     OW14407   4.740   3.712   3.051 -0.0262 -0.2999  0.2982
 3659SOL    HW214408   4.799   3.637   3.068  2.0567  1.1990  0.1097
 3659SOL    HW314409   4.789   3.788   3.083 -0.3006  1.4658 -3.0196
 3659SOL    MW414410   4.755   3.712   3.057  0.1396  0.2730 -0.0982
 3660SOL     OW14411   4.539   4.829   6.182  0.0916 -0.0565 -0.7383
 3660SOL    HW214412   4.574   4.759   6.237  1.2048  0.0210 -1.3197
 3660SOL    HW314413   4.497   4.890   6.244  1.1376 -0.0703  0.0127
 3660SOL    MW414414   4.538   4.828   6.197  0.2701  0.5387 -0.0588
 3661SOL     OW14415   1.647   0.230   3.285 -0.0469 -0.3360  0.0821
 3661SOL    HW214416   1.558   0.217   3.319  1.1967 -0.9433  3.4908
 3661SOL    HW314417   1.671   0.146   3.246 -0.4661 -0.6170  0.4245
 3661SOL    MW414418   1.638   0.218   3.284  0.4515  0.1778 -0.1616
 3662SOL     OW14419   5.289   3.009   6.408 -0.0106 -0.6106  0.0135
 3662SOL    HW214420   5.383   3.017   6.419 -0.1544  0.7549  0.3794
 3662SOL    HW314421   5.254   3.096   6.428 -0.9574  0.2656 -4.3581
 3662SOL    MW414422   5.297   3.022   6.412 -0.4516 -0.6787  0.5223
 3663SOL     OW14423   0.373   3.137   2.990 -0.3064  0.2354 -0.1909
 3663SOL    HW214424   0.312   3.147   2.917 -0.5946 -2.2349 -0.3677
 3663SOL    HW314425   0.328   3.078   3.051  0.8097  0.5279  0.9559
 3663SOL    MW414426   0.359   3.130   2.988  0.0859 -0.0594 -0.0063
 3664SOL     OW14427   1.645   1.752   1.565 -0.3883  0.5550  0.2927
 3664SOL    HW214428   1.672   1.794   1.646 -2.2146 -0.0344  1.2520
 3664SOL    HW314429   1.724   1.710   1.532  0.5293  1.3450  1.4163
 3664SOL    MW414430   1.659   1.752   1.571  0.0894  0.0541 -0.2092
 3665SOL     OW14431   2.592   5.030   4.487 -0.6239 -0.3254  0.0931
 3665SOL    HW214432   2.543   5.095   4.437 -1.8875 -0.5873  0.9331
 3665SOL    HW314433   2.585   4.949   4.436  0.5641  0.0630 -0.7240
 3665SOL    MW414434   2.584   5.028   4.474  0.0350  0.2890 -0.3160
 3666SOL     OW14435   2.040   3.852   5.462 -0.3526 -0.3140  0.6979
 3666SOL    HW214436   1.986   3.806   5.397 -0.2531  0.4602  0.0548
 3666SOL    HW314437   2.063   3.784   5.526 -0.2338 -1.1551 -0.2151
 3666SOL    MW414438   2.036   3.837   5.462  0.5069  0.0560  0.1028
 3667SOL     OW14439   5.998   3.844   3.114 -0.0478 -0.6967  0.2483
 3667SOL    HW214440   6.023   3.832   3.205  3.4754  2.4473 -0.0294
 3667SOL    HW314441   6.048   3.777   3.067  1.3904  0.1961  0.4213
 3667SOL    MW414442   6.008   3.833   3.120  0.1301  0.3067 -0.1751
 3668SOL     OW14443   1.181   0.489   0.638 -0.4859 -0.1140  0.2367
 3668SOL    HW214444   1.129   0.554   0.686  0.2726  1.1363 -0.5790
 3668SOL    HW314445   1.271   0.522   0.645 -0.1879 -0.6821 -0.8239
 3668SOL    MW414446   1.186   0.502   0.645 -0.1069 -0.0917  0.1302
 3669SOL     OW14447   0.963   1.268   0.705 -0.2987  0.0474 -0.0313
 3669SOL    HW214448   0.879   1.222   0.701 -1.0040  1.3701 -1.5906
 3669SOL    HW314449   1.027   1.203   0.677 -0.9322 -0.7199  0.2751
 3669SOL    MW414450   0.960   1.253   0.701 -0.2763  0.3111  0.2512
 3670SOL     OW14451   3.655   5.784   4.525 -1.0107 -0.1439 -0.0614
 3670SOL    HW214452   3.574   5.832   4.542 -0.8602  0.5170 -1.1130
 3670SOL    HW314453   3.687   5.820   4.442  1.0580  0.5750  0.9730
 3670SOL    MW414454   3.648   5.795   4.516  0.5787 -0.0137 -0.2259
 3671SOL     OW14455   0.491   6.187   1.636  0.0633 -0.3070 -0.4345
 3671SOL    HW214456   0.564   6.215   1.691  1.6436 -3.0333 -0.9417
 3671SOL    HW314457   0.431   6.142   1.696 -0.8765  1.2746 -0.1448
 3671SOL    MW414458   0.493   6.185   1.651 -0.3486 -0.3194 -0.0568
 3672SOL     OW14459   2.960   5.227   5.227  0.2730 -0.5636 -0.3631
 3672SOL    HW214460   2.945   5.245   5.134 -1.9292 -1.4237 -0.2361
 3672SOL    HW314461   3.044   5.180   5.229  0.4458 -0.3684 -1.8857
 3672SOL    MW414462   2.969   5.223   5.215  0.1215  0.7216  0.0499
 3673SOL     OW14463   5.132   3.084   2.966  0.3919 -0.3877  0.0242
 3673SOL    HW214464   5.060   3.097   2.905  1.6210  1.6207 -1.0814
 3673SOL    HW314465   5.123   2.993   2.995 -1.0915 -0.9331 -1.9913
 3673SOL    MW414466   5.121   3.073   2.962 -0.5498 -0.6254 -0.1112
 3674SOL     OW14467   3.662   2.540   3.208 -0.0009  0.3770 -0.2617
 3674SOL    HW214468   3.596   2.607   3.192  1.1159  1.6918  0.4704
 3674SOL    HW314469   3.642   2.506   3.295  1.0620  1.7657  0.5676
 3674SOL    MW414470   3.651   2.544   3.217 -0.5940 -0.5957  0.4512
 3675SOL     OW14471   3.163   1.679   2.224  0.4921  0.2156 -0.2882
 3675SOL    HW214472   3.196   1.707   2.138 -0.7626 -1.6594 -1.4785
 3675SOL    HW314473   3.073   1.712   2.227  0.6779  0.6667  0.5278
 3675SOL    MW414474   3.155   1.687   2.213  0.1857  0.4050  0.5123
 3676SOL     OW14475   1.863   3.782   3.707 -0.3143 -0.7687 -1.1054
 3676SOL    HW214476   1.777   3.747   3.685  0.3615 -2.9987 -0.5002
 3676SOL    HW314477   1.924   3.712   3.683  1.2393  0.3435 -0.5738
 3676SOL    MW414478   1.860   3.768   3.701  0.2304 -1.0173 -0.3239
 3677SOL     OW14479   6.280   0.804   1.562 -0.1152  0.4307  0.1100
 3677SOL    HW214480   6.369   0.789   1.594 -0.1168 -0.1827 -0.1635
 3677SOL    HW314481   6.259   0.725   1.512 -0.2161  1.2383 -1.1750
 3677SOL    MW414482   6.289   0.792   1.560  0.2427 -0.2937  0.4790
 3678SOL     OW14483   6.082   3.170   2.334  1.2007  0.7689 -0.6364
 3678SOL    HW214484   6.099   3.218   2.253  0.4959  1.0676 -0.6071
 3678SOL    HW314485   6.091   3.235   2.403  0.8171  0.7289 -0.5501
 3678SOL    MW414486   6.086   3.185   2.332  0.1493  0.1600 -0.5156
 3679SOL     OW14487   5.075   0.626   2.692 -0.5540  0.4513 -0.0618
 3679SOL    HW214488   5.068   0.721   2.692 -0.8908  0.4493 -1.1804
 3679SOL    HW314489   5.039   0.600   2.607 -1.5424 -0.7495  0.6901
 3679SOL    MW414490   5.069   0.635   2.680 -0.6169 -0.4847  0.2330
 3680SOL     OW14491   2.662   5.405   5.022  0.1360  0.2313  0.1517
 3680SOL    HW214492   2.717   5.409   4.944  1.3363 -0.4819  0.9423
 3680SOL    HW314493   2.714   5.446   5.091 -0.6421  0.2514  0.7447
 3680SOL    MW414494   2.676   5.411   5.021 -0.2338 -0.3441  0.2911
 3681SOL     OW14495   2.223   1.073   5.075 -0.0512  1.0573  0.0719
 3681SOL    HW214496   2.152   1.134   5.054  0.2873  1.7198  0.7718
 3681SOL    HW314497   2.183   1.008   5.132 -0.2345  1.0822 -0.0281
 3681SOL    MW414498   2.208   1.073   5.080  0.2976 -0.3190 -0.2958
 3682SOL     OW14499   5.668   5.434   1.860  0.1034  0.5244  0.0515
 3682SOL    HW214500   5.707   5.522   1.858  0.4662  0.3883  0.6592
 3682SOL    HW314501   5.707   5.393   1.938 -2.3512  0.8901  1.5932
 3682SOL    MW414502   5.678   5.440   1.870  0.2315 -0.2077  0.2502
 3683SOL     OW14503   6.028   1.936   2.580 -0.3642 -0.0660 -0.3460
 3683SOL    HW214504   5.956   1.979   2.533 -0.8756 -1.1693 -0.6023
 3683SOL    HW314505   5.985   1.868   2.632  0.5669 -1.5288 -1.4076
 3683SOL    MW414506   6.013   1.933   2.581 -0.1698  0.1592 -0.2593
 3684SOL     OW14507   0.100   1.159   5.397 -0.1365  0.4377  0.1725
 3684SOL    HW214508   0.042   1.180   5.324  0.5110  0.3615 -0.3731
 3684SOL    HW314509   0.043   1.118   5.462 -0.4897 -0.8030 -0.8678
 3684SOL    MW414510   0.085   1.156   5.396 -0.1907 -0.1846 -0.0242
 3685SOL     OW14511   1.212   0.958   1.533 -0.1865 -0.1180 -0.5728
 3685SOL    HW214512   1.245   1.039   1.495  1.7168 -1.2096 -1.4099
 3685SOL    HW314513   1.267   0.944   1.611 -0.9795 -0.2535 -0.0267
 3685SOL    MW414514   1.224   0.967   1.538 -0.0827 -0.2365 -0.3004
 3686SOL     OW14515   0.015   6.097   1.938  0.3327 -0.4564  0.5080
 3686SOL    HW214516  -0.070   6.077   1.898 -0.4410 -2.7512  2.9816
 3686SOL    HW314517   0.078   6.085   1.867 -1.3085  1.1461 -1.3580
 3686SOL    MW414518   0.012   6.093   1.923  0.2096 -0.3475  0.0101
 3687SOL     OW14519   1.316   1.028   5.315  0.3005  0.4715 -0.1234
 3687SOL    HW214520   1.224   1.005   5.327  0.1530 -0.1962 -2.2009
 3687SOL    HW314521   1.363   0.970   5.375 -0.5168 -0.4126 -0.3188
 3687SOL    MW414522   1.310   1.017   5.325  0.5593  0.4256 -0.2909
 3688SOL     OW14523   0.592   0.718   2.306 -0.0859 -0.6686 -0.2771
 3688SOL    HW214524   0.514   0.678   2.344  1.4469 -1.1794  2.6117
 3688SOL    HW314525   0.627   0.774   2.375  2.0768 -0.3938 -1.4923
 3688SOL    MW414526   0.587   0.720   2.320 -0.3142 -0.0005 -0.0233
 3689SOL     OW14527   3.659   4.605   4.546 -0.3245  0.0967 -0.4959
 3689SOL    HW214528   3.592   4.665   4.579 -0.7675  0.4516 -1.9445
 3689SOL    HW314529   3.732   4.616   4.605 -1.1597  0.5098  0.4912
 3689SOL    MW414530   3.659   4.615   4.558 -0.1700  0.2508  0.0222
 3690SOL     OW14531   1.101   0.422   0.010  0.2781  0.1132 -1.0131
 3690SOL    HW214532   1.182   0.418  -0.042  2.9485  1.1568  2.6615
 3690SOL    HW314533   1.110   0.502   0.061 -1.5442 -1.3376  1.8316
 3690SOL    MW414534   1.113   0.432   0.010 -0.5484  0.1494 -0.1087
 3691SOL     OW14535   5.479   0.300   0.307  0.0300 -0.0560 -0.0618
 3691SOL    HW214536   5.436   0.335   0.229 -0.3808  0.6457  0.4613
 3691SOL    HW314537   5.504   0.211   0.283 -1.5297 -0.4174 -0.4721
 3691SOL    MW414538   5.477   0.293   0.294 -0.3468  0.2268  0.7059
 3692SOL     OW14539   3.356   5.822   0.686 -0.0290  0.3332  0.1405
 3692SOL    HW214540   3.450   5.807   0.677 -0.3471 -1.4839 -0.5099
 3692SOL    HW314541   3.345   5.847   0.777  0.7956 -2.3108  1.0581
 3692SOL    MW414542   3.367   5.823   0.697 -0.3318  0.3159 -0.3351
 3693SOL     OW14543   0.604   4.712   6.330 -0.0118 -0.4989 -0.3781
 3693SOL    HW214544   0.566   4.797   6.307 -0.0892 -0.2610  0.5909
 3693SOL    HW314545   0.571   4.694   6.417 -1.5461 -2.4604 -1.3019
 3693SOL    MW414546   0.595   4.721   6.338 -0.3766 -0.3873 -0.0742
 3694SOL     OW14547   0.651   2.287   1.943  0.2482 -0.3084 -0.0013
 3694SOL    HW214548   0.588   2.261   1.876 -0.5836  0.7730  0.3211
 3694SOL    HW314549   0.616   2.250   2.024 -0.6241  1.1901  0.3615
 3694SOL    MW414550   0.638   2.279   1.945 -0.1703  0.1113  0.1740
 3695SOL     OW14551   2.784   0.152   1.525  0.2645  0.5053 -0.3693
 3695SOL    HW214552   2.732   0.233   1.518  0.1689  0.7276  2.1862
 3695SOL    HW314553   2.856   0.175   1.583  0.1676 -1.2783  0.5088
 3695SOL    MW414554   2.786   0.166   1.531 -0.3361 -0.4255  0.0808
 3696SOL     OW14555   3.758   2.151   5.560 -0.0538  0.2558 -0.1888
 3696SOL    HW214556   3.676   2.191   5.532  0.2452  1.0332  0.0036
 3696SOL    HW314557   3.825   2.215   5.536  0.1854  1.2018  2.6395
 3696SOL    MW414558   3.756   2.165   5.553  0.5110  0.4352 -0.0114
 3697SOL     OW14559   1.926   2.824   3.275 -0.4973 -0.6962 -0.3838
 3697SOL    HW214560   1.883   2.866   3.201 -1.6344 -0.6791  0.2648
 3697SOL    HW314561   1.922   2.730   3.255 -1.4989 -0.7475 -0.0010
 3697SOL    MW414562   1.920   2.817   3.263  0.4643  0.2719  0.5587
 3698SOL     OW14563   2.489   3.801   2.778  0.3864 -0.5245 -0.0380
 3698SOL    HW214564   2.510   3.844   2.861  0.8642 -1.6282  0.4343
 3698SOL    HW314565   2.524   3.860   2.711  1.1254 -0.2208  0.5962
 3698SOL    MW414566   2.497   3.815   2.780  0.0810  0.4999  0.2380
 3699SOL     OW14567   4.750   0.341   2.670 -0.1773 -0.6093 -0.1891
 3699SOL    HW214568   4.767   0.278   2.600  4.2945  0.6372 -0.5659
 3699SOL    HW314569   4.760   0.426   2.627  0.2550  0.2143  1.4752
 3699SOL    MW414570   4.754   0.344   2.655  0.1760  0.0375  0.0475
 3700SOL     OW14571   4.420   1.805   2.654  0.4399 -0.0994  0.4743
 3700SOL    HW214572   4.395   1.713   2.660  1.4661 -0.5301 -1.2249
 3700SOL    HW314573   4.337   1.852   2.659 -0.2346 -1.1915 -0.0094
 3700SOL    MW414574   4.406   1.799   2.655  0.5658 -0.1808  0.2293
 3701SOL     OW14575   2.520   6.246   6.086 -0.3588 -0.0751  0.1378
 3701SOL    HW214576   2.521   6.181   6.015  0.0044  0.7322 -0.6103
 3701SOL    HW314577   2.532   6.330   6.042 -0.1195  0.4424  1.1670
 3701SOL    MW414578   2.521   6.248   6.071  0.4001 -0.0244  0.0350
 3702SOL     OW14579   6.238   3.340   0.574 -0.1593  0.2011  0.4057
 3702SOL    HW214580   6.156   3.344   0.625 -0.6661 -0.4613 -0.3373
 3702SOL    HW314581   6.293   3.409   0.612 -0.4635 -0.3656  1.9517
 3702SOL    MW414582   6.234   3.350   0.586 -0.1487 -0.0243 -0.0637
 3703SOL     OW14583   0.618   3.828   3.958 -0.0510 -0.0295  0.7162
 3703SOL    HW214584   0.533   3.866   3.982  0.7150  1.2169  1.5590
 3703SOL    HW314585   0.609   3.735   3.977 -2.0337 -0.3807 -1.5184
 3703SOL    MW414586   0.605   3.821   3.964 -0.8007 -0.5477  0.1388
 3704SOL     OW14587   5.380   0.103   2.011  0.1809  0.0393 -0.0084
 3704SOL    HW214588   5.457   0.127   2.062  1.0896  1.1361 -1.8012
 3704SOL    HW314589   5.313   0.085   2.077  1.2273  1.5587  1.5689
 3704SOL    MW414590   5.381   0.104   2.027  0.0293 -0.3192 -0.3944
 3705SOL     OW14591   5.527   1.153   5.511 -0.4754 -0.1810  0.7167
 3705SOL    HW214592   5.455   1.215   5.496 -1.4311 -1.0311  1.6818
 3705SOL    HW314593   5.511   1.083   5.448 -1.1576 -0.9257  1.7084
 3705SOL    MW414594   5.515   1.152   5.500  0.4395  0.6437 -0.2519
 3706SOL     OW14595   3.612   5.045   0.611  0.0636  0.0281 -0.5981
 3706SOL    HW214596   3.537   5.059   0.553 -0.1009  1.3873 -0.1031
 3706SOL    HW314597   3.596   4.960   0.652 -0.4124 -0.4024 -1.6498
 3706SOL    MW414598   3.600   5.036   0.609  0.2168  0.7794 -0.7811
 3707SOL     OW14599   4.960   4.151   4.814 -0.2602 -0.4307  0.2012
 3707SOL    HW214600   5.013   4.125   4.889 -0.1948 -1.0042 -0.0345
 3707SOL    HW314601   4.942   4.243   4.828 -0.2935 -0.5451  0.9490
 3707SOL    MW414602   4.965   4.159   4.826  0.2998  0.0565  0.6178
 3708SOL     OW14603   5.702   5.614   2.233  0.3420 -0.1906 -0.0402
 3708SOL    HW214604   5.727   5.647   2.147  3.1966 -0.1536  0.7015
 3708SOL    HW314605   5.628   5.669   2.259  0.6359  1.0590 -1.6706
 3708SOL    MW414606   5.696   5.626   2.225 -0.1088  0.2233 -0.6040
 3709SOL     OW14607   2.482   1.054   2.915  0.1873  0.0841  0.0411
 3709SOL    HW214608   2.391   1.054   2.886 -0.3019  0.9800  1.4808
 3709SOL    HW314609   2.494   1.139   2.956  1.4060 -0.3898  0.7024
 3709SOL    MW414610   2.472   1.065   2.916  0.5662  0.3761  0.0547
 3710SOL     OW14611   0.342   6.094   0.411  0.3068 -0.4883 -0.2338
 3710SOL    HW214612   0.417   6.043   0.379  0.1854 -0.7409 -0.1146
 3710SOL    HW314613   0.285   6.103   0.334  1.5570  1.7560 -1.0023
 3710SOL    MW414614   0.344   6.088   0.397  0.6632 -0.4046 -0.0739
 3711SOL     OW14615   1.764   0.205   4.107 -0.4163  1.0171  0.2130
 3711SOL    HW214616   1.833   0.239   4.051 -1.1557 -1.2074 -2.2368
 3711SOL    HW314617   1.797   0.120   4.137 -2.3992 -0.6114 -1.9132
 3711SOL    MW414618   1.778   0.199   4.104 -0.1830  0.1414  0.0952
 3712SOL     OW14619   1.071   1.031   5.715  0.3134 -0.3540  0.0959
 3712SOL    HW214620   1.120   1.093   5.662  1.6021 -0.4903  1.0890
 3712SOL    HW314621   1.054   0.957   5.656  1.5943 -0.4452 -0.1772
 3712SOL    MW414622   1.075   1.029   5.700  0.3303  0.2719 -0.5088
 3713SOL     OW14623   0.925   0.887   1.528 -0.4157 -0.0619  0.0140
 3713SOL    HW214624   1.018   0.906   1.529 -0.5741  0.8009 -0.3598
 3713SOL    HW314625   0.883   0.971   1.547 -1.1657  0.0511 -1.8551
 3713SOL    MW414626   0.932   0.901   1.530  0.5616  0.0074  0.7422
 3714SOL     OW14627   0.792   1.099   4.759 -0.3528 -0.0447 -0.7088
 3714SOL    HW214628   0.716   1.044   4.781 -0.0043 -0.1201  0.3590
 3714SOL    HW314629   0.865   1.058   4.806 -0.4038  2.3711  1.6853
 3714SOL    MW414630   0.791   1.086   4.768  0.3543  0.0532 -0.3457
 3715SOL     OW14631   5.047   0.850   3.527  0.3757  0.1650 -0.8217
 3715SOL    HW214632   5.131   0.896   3.534 -0.2198  1.1505  0.1387
 3715SOL    HW314633   5.059   0.770   3.578  1.0650 -0.2480 -1.5980
 3715SOL    MW414634   5.059   0.845   3.534  0.2828  0.0666 -0.3116
 3716SOL     OW14635   6.267   5.205   4.501 -0.6545  0.0809 -0.4142
 3716SOL    HW214636   6.284   5.294   4.469  1.2874 -0.4070 -0.8899
 3716SOL    HW314637   6.173   5.193   4.489 -1.3308  2.6458  1.2346
 3716SOL    MW414638   6.257   5.215   4.495 -0.3265 -0.3050 -0.0186
 3717SOL     OW14639   5.841   4.034   3.251  0.1810 -0.0113 -0.5046
 3717SOL    HW214640   5.892   4.113   3.269 -1.0341  0.5960  0.4023
 3717SOL    HW314641   5.900   3.978   3.200  1.5563  0.8805  0.0666
 3717SOL    MW414642   5.856   4.037   3.247  1.3691  0.3844 -0.0433
 3718SOL     OW14643   2.130   5.438   1.997 -0.0592 -0.5554  0.3022
 3718SOL    HW214644   2.156   5.508   2.058 -0.9603  0.8044 -0.8003
 3718SOL    HW314645   2.079   5.378   2.050  2.9882 -1.9467  1.9486
 3718SOL    MW414646   2.127   5.440   2.012  0.0055  0.2071  0.2521
 3719SOL     OW14647   4.349   4.281   1.246 -0.1090  0.2037  0.1591
 3719SOL    HW214648   4.344   4.357   1.305 -0.5723 -0.6629  1.2536
 3719SOL    HW314649   4.303   4.211   1.292  1.3640 -1.1053 -0.2702
 3719SOL    MW414650   4.343   4.282   1.260  0.1126  0.2915  0.0619
 3720SOL     OW14651   4.169   0.411   0.121 -0.2126 -0.1824  0.0191
 3720SOL    HW214652   4.116   0.331   0.130 -0.5004 -0.0908 -0.7915
 3720SOL    HW314653   4.138   0.451   0.040  0.6265  0.2412 -0.1014
 3720SOL    MW414654   4.158   0.406   0.112  0.5114 -0.6460 -0.0126
 3721SOL     OW14655   4.837   5.272   5.296 -0.3473  0.2828  0.4356
 3721SOL    HW214656   4.861   5.222   5.218 -0.4987  0.6527  0.1444
 3721SOL    HW314657   4.769   5.220   5.338 -1.4045  0.8168 -0.5363
 3721SOL    MW414658   4.831   5.259   5.291  0.0558  0.0914 -0.3471
 3722SOL     OW14659   1.846   3.510   4.063  0.1777  0.2079  0.2898
 3722SOL    HW214660   1.752   3.526   4.069  0.1739  0.3182 -0.0546
 3722SOL    HW314661   1.884   3.593   4.033  0.5793  0.6552  1.9359
 3722SOL    MW414662   1.839   3.523   4.060  0.3914 -0.4889 -0.5434
 3723SOL     OW14663   1.920   2.361   3.570  0.2355 -0.0242  0.1274
 3723SOL    HW214664   1.926   2.420   3.645  2.5107 -1.4232  1.1431
 3723SOL    HW314665   1.852   2.298   3.594 -0.0469  0.3665  0.3637
 3723SOL    MW414666   1.912   2.360   3.583 -0.7882 -0.6808  0.7212
 3724SOL     OW14667   0.945   2.028   4.802 -0.0292 -0.1889  0.2062
 3724SOL    HW214668   0.895   1.948   4.821  0.3113 -1.4300 -3.3843
 3724SOL    HW314669   0.881   2.088   4.765  0.1783  0.2788  0.6016
 3724SOL    MW414670   0.930   2.025   4.800 -0.0437 -0.5910  0.2145
 3725SOL     OW14671   4.118   3.501   2.445  0.7255 -0.3516 -0.0730
 3725SOL    HW214672   4.028   3.502   2.415  0.8880 -2.4602 -0.7571
 3725SOL    HW314673   4.120   3.436   2.515  1.4425  0.6964  0.9172
 3725SOL    MW414674   4.107   3.492   2.450  0.7319  0.1583  0.0290
 3726SOL     OW14675   0.304   4.760   5.300 -0.2666 -0.3142  0.3452
 3726SOL    HW214676   0.266   4.787   5.216 -1.7889 -1.1256  0.7470
 3726SOL    HW314677   0.391   4.728   5.277  0.6505  2.4702 -0.4790
 3726SOL    MW414678   0.311   4.759   5.286  0.3731  0.0902 -0.0492
 3727SOL     OW14679   3.935   2.172   2.744  0.4051 -0.1967  0.2519
 3727SOL    HW214680   3.913   2.105   2.679 -1.4488  0.3449  0.2765
 3727SOL    HW314681   3.926   2.127   2.828 -0.4918 -0.0483  0.2512
 3727SOL    MW414682   3.931   2.157   2.747 -0.3241 -0.2064 -0.0958
 3728SOL     OW14683   3.108   5.279   5.895 -0.4497 -0.6894 -0.4194
 3728SOL    HW214684   3.203   5.270   5.903 -0.3727 -1.4733 -1.8498
 3728SOL    HW314685   3.072   5.215   5.956 -0.1243  0.8620  1.4862
 3728SOL    MW414686   3.116   5.269   5.904  0.3791  0.3980 -0.3464
 3729SOL     OW14687   1.439   2.334   1.266  0.5083 -0.6114 -0.0611
 3729SOL    HW214688   1.358   2.316   1.313 -0.0361  0.1508 -0.6766
 3729SOL    HW314689   1.506   2.285   1.313  0.0151  0.2607  1.6157
 3729SOL    MW414690   1.437   2.325   1.278  0.0871 -0.0462  0.0150
 3730SOL     OW14691   4.898   5.097   6.089 -0.2462 -0.2910  0.3321
 3730SOL    HW214692   4.952   5.110   6.011  0.7685  0.0227  1.0605
 3730SOL    HW314693   4.815   5.141   6.069 -0.8159 -2.0151 -1.3749
 3730SOL    MW414694   4.894   5.104   6.076 -0.1765 -0.1568  0.6823
 3731SOL     OW14695   1.669   4.479   1.235 -0.3092 -0.0096  0.8508
 3731SOL    HW214696   1.662   4.522   1.320 -0.1164  1.4947  0.1478
 3731SOL    HW314697   1.615   4.532   1.176 -0.9151 -1.3625  0.1470
 3731SOL    MW414698   1.661   4.492   1.238 -0.2041  0.1057 -0.5786
 3732SOL     OW14699   2.887   3.806   5.461 -0.1589 -0.2982  0.2140
 3732SOL    HW214700   2.884   3.870   5.390 -2.7971  0.2113  0.6775
 3732SOL    HW314701   2.867   3.722   5.419 -2.6345  0.1334  0.3856
 3732SOL    MW414702   2.884   3.803   5.446 -0.1723  0.1493 -0.5334
 3733SOL     OW14703   0.307   6.035   1.283  0.5042  0.1913 -0.0395
 3733SOL    HW214704   0.239   6.090   1.324  0.3510  0.3295 -0.4774
 3733SOL    HW314705   0.258   5.973   1.229  0.6332 -0.8244  0.9645
 3733SOL    MW414706   0.291   6.034   1.282 -0.1106  0.2855  0.0899
 3734SOL     OW14707   4.313   4.874   5.897 -0.2798 -0.0362  0.0127
 3734SOL    HW214708   4.276   4.840   5.815 -0.6498  0.5478 -0.0642
 3734SOL    HW314709   4.407   4.883   5.878 -0.4953  0.9455 -0.6553
 3734SOL    MW414710   4.321   4.871   5.883 -0.0992 -0.0959  0.3537
 3735SOL     OW14711   1.242   1.875   1.041  0.1341 -0.0439 -0.5571
 3735SOL    HW214712   1.317   1.852   1.095 -0.4130 -1.0913 -0.2327
 3735SOL    HW314713   1.176   1.905   1.103  0.2931  0.9446 -0.8492
 3735SOL    MW414714   1.243   1.876   1.056  0.3272  0.3662  0.4403
 3736SOL     OW14715   2.359   0.335   3.553 -0.1490  0.1062  0.0495
 3736SOL    HW214716   2.440   0.384   3.566  0.6381 -1.1579  0.0682
 3736SOL    HW314717   2.388   0.246   3.535 -1.5228 -0.1905 -0.7877
 3736SOL    MW414718   2.374   0.330   3.553  0.1029  0.2369  0.4048
 3737SOL     OW14719   4.338   1.602   1.897  0.0546 -0.6498  0.0709
 3737SOL    HW214720   4.357   1.537   1.965  0.7672 -0.0876  0.4220
 3737SOL    HW314721   4.390   1.678   1.921  0.1886 -0.3789 -1.0196
 3737SOL    MW414722   4.347   1.604   1.909 -0.1247 -0.4885  0.3834
 3738SOL     OW14723   6.388   5.999   3.146 -0.0399  0.2988 -0.3641
 3738SOL    HW214724   6.381   6.094   3.157  1.6168  0.3504  0.6871
 3738SOL    HW314725   6.470   5.987   3.099 -0.6855 -0.6010 -1.2970
 3738SOL    MW414726   6.398   6.010   3.142  0.4210 -0.2594  0.5621
 3739SOL     OW14727   4.375   4.682   2.633 -0.2702 -0.3913 -0.1421
 3739SOL    HW214728   4.374   4.776   2.618  0.4424 -0.1642  1.1103
 3739SOL    HW314729   4.359   4.643   2.547  0.1678  0.8532 -0.8009
 3739SOL    MW414730   4.373   4.689   2.620 -0.1538 -0.3086  0.9734
 3740SOL     OW14731   2.528   3.870   1.374 -0.4515 -0.1103 -0.9198
 3740SOL    HW214732   2.460   3.805   1.359  0.6665 -1.7580  0.6490
 3740SOL    HW314733   2.508   3.906   1.460  0.4006 -0.3328 -0.6150
 3740SOL    MW414734   2.517   3.866   1.383  0.4506  0.2578 -0.2679
 3741SOL     OW14735   1.955   0.066   5.450  0.8754 -0.3496  0.5052
 3741SOL    HW214736   1.909  -0.006   5.408 -0.5313  0.6745  0.2283
 3741SOL    HW314737   2.046   0.057   5.421  0.6678 -1.8054  0.2416
 3741SOL    MW414738   1.961   0.056   5.441  0.6667 -0.0354 -0.0308
 3742SOL     OW14739   5.536   0.673   2.732 -0.5041  0.6443 -0.8186
 3742SOL    HW214740   5.504   0.675   2.823 -0.8446 -0.6615 -0.8808
 3742SOL    HW314741   5.572   0.760   2.717 -0.2391  0.8156  0.6476
 3742SOL    MW414742   5.536   0.684   2.742  0.5324  0.1526 -0.4754
 3743SOL     OW14743   2.344   5.654   1.380 -0.0955  0.0402 -0.1521
 3743SOL    HW214744   2.252   5.661   1.354 -0.1516  0.4125  0.1402
 3743SOL    HW314745   2.386   5.732   1.342 -0.0529  0.2633  0.3478
 3743SOL    MW414746   2.338   5.665   1.371 -0.1476  0.1997 -0.0462
 3744SOL     OW14747   1.215   2.782   2.882  0.4881 -0.5042  0.3285
 3744SOL    HW214748   1.303   2.773   2.847  0.5937  0.9474  0.1711
 3744SOL    HW314749   1.170   2.701   2.858  0.7629  0.1110 -2.5411
 3744SOL    MW414750   1.220   2.770   2.874 -0.4871 -0.2755  0.3956
 3745SOL     OW14751   3.982   0.275   4.367 -0.2599  0.2371 -0.5643
 3745SOL    HW214752   4.030   0.352   4.336  0.7782 -0.9618 -2.1165
 3745SOL    HW314753   3.894   0.287   4.333 -0.6135  1.5435  0.6947
 3745SOL    MW414754   3.977   0.287   4.358  0.5136 -0.1778 -0.2417
 3746SOL     OW14755   0.662   1.478   1.023  0.5933 -0.0660 -0.3933
 3746SOL    HW214756   0.717   1.401   1.041  0.2739  0.0058  0.9765
 3746SOL    HW314757   0.596   1.446   0.962  0.4946 -0.8760  0.1207
 3746SOL    MW414758   0.661   1.464   1.017 -0.0592  0.3204 -0.5773
 3747SOL     OW14759   2.354   4.011   2.268  0.2899 -0.0992 -0.4084
 3747SOL    HW214760   2.411   3.937   2.288  0.2370  0.0489  0.3200
 3747SOL    HW314761   2.310   4.031   2.351  1.5487  1.8296 -0.1417
 3747SOL    MW414762   2.356   4.004   2.282  0.3409 -0.6072  0.6423
 3748SOL     OW14763   4.151   1.574   0.276 -0.4957 -0.0605 -0.2068
 3748SOL    HW214764   4.228   1.631   0.277  0.1226 -0.8632  0.0845
 3748SOL    HW314765   4.079   1.628   0.307  0.2456  0.3238  0.8842
 3748SOL    MW414766   4.152   1.589   0.280 -1.2047  0.4641 -0.0399
 3749SOL     OW14767   5.915   3.601   5.270 -0.5033  0.3213 -0.2065
 3749SOL    HW214768   5.920   3.549   5.351  0.4032 -0.1581 -0.5533
 3749SOL    HW314769   5.823   3.601   5.247 -0.6158 -0.5300  0.2025
 3749SOL    MW414770   5.904   3.594   5.278  0.5655 -0.1159 -0.2263
 3750SOL     OW14771   2.126   1.702   5.575 -0.5090  0.1779  0.3960
 3750SOL    HW214772   2.192   1.669   5.637  1.2469  0.3439 -1.3008
 3750SOL    HW314773   2.043   1.688   5.620  0.5029 -1.9120  1.8145
 3750SOL    MW414774   2.124   1.696   5.589  0.1828  0.3943  0.1310
 3751SOL     OW14775   4.656   3.136   5.104  0.5510 -0.2324 -0.5320
 3751SOL    HW214776   4.671   3.229   5.083 -0.6162 -0.2545 -1.5953
 3751SOL    HW314777   4.572   3.136   5.150 -0.1610 -0.8756 -1.7669
 3751SOL    MW414778   4.647   3.149   5.107  0.3447 -0.0716 -0.1567
 3752SOL     OW14779   0.059   2.650   2.701 -0.4895 -0.5584  0.1184
 3752SOL    HW214780  -0.037   2.643   2.696 -0.5147 -1.3370  1.1723
 3752SOL    HW314781   0.091   2.583   2.642 -0.6147 -0.8280  0.3515
 3752SOL    MW414782   0.050   2.640   2.693  0.0945 -0.7642 -0.4424
 3753SOL     OW14783   3.093   0.336   2.560  0.6539 -0.2368 -0.2240
 3753SOL    HW214784   3.092   0.430   2.540 -0.2657 -0.2760 -0.4083
 3753SOL    HW314785   3.182   0.319   2.591  0.7117  0.7849  0.2210
 3753SOL    MW414786   3.105   0.346   2.561  0.0243  0.0701 -0.8342
 3754SOL     OW14787   0.611   5.159   1.314  0.2259  0.4614 -0.2525
 3754SOL    HW214788   0.631   5.069   1.341 -0.1697  0.3759 -0.2499
 3754SOL    HW314789   0.696   5.195   1.289  0.5445  0.3974  0.6783
 3754SOL    MW414790   0.625   5.152   1.314 -0.5674  0.3244 -0.6445
 3755SOL     OW14791   5.691   0.572   5.067  0.4749 -0.6188 -0.0900
 3755SOL    HW214792   5.702   0.526   5.150 -1.6474 -1.7926 -0.3825
 3755SOL    HW314793   5.597   0.567   5.049  0.4803  1.9893 -1.2431
 3755SOL    MW414794   5.680   0.565   5.075  0.2732 -0.1482 -0.2675
 3756SOL     OW14795   6.194   1.822   3.761 -0.3664 -0.1446  0.1791
 3756SOL    HW214796   6.145   1.905   3.757  0.0273  0.0396 -1.3882
 3756SOL    HW314797   6.229   1.820   3.851 -1.0753  0.9760  0.5090
 3756SOL    MW414798   6.192   1.833   3.773  0.1113  0.7031  0.3202
 3757SOL     OW14799   0.431   0.188   4.367  0.1973  0.4013  0.1396
 3757SOL    HW214800   0.520   0.220   4.382  0.1472  1.0585 -0.8757
 3757SOL    HW314801   0.395   0.247   4.301 -0.3151 -1.0282 -0.9160
 3757SOL    MW414802   0.438   0.200   4.361  0.1993 -1.1432  0.5739
 3758SOL     OW14803   2.922   3.365   0.672  0.0965 -0.5969  0.4442
 3758SOL    HW214804   2.835   3.400   0.686  0.7724  1.0299  0.8081
 3758SOL    HW314805   2.965   3.373   0.758  0.6355 -1.2715  0.2425
 3758SOL    MW414806   2.916   3.371   0.685  0.1800  0.2434 -0.2975
 3759SOL     OW14807   5.559   0.459   3.304  0.4323 -0.3174 -0.6933
 3759SOL    HW214808   5.552   0.542   3.258  1.9011  0.7014  0.8333
 3759SOL    HW314809   5.640   0.420   3.273  0.7090 -0.2799 -0.0477
 3759SOL    MW414810   5.569   0.465   3.294  0.6775  0.1003  0.7107
 3760SOL     OW14811   4.026   0.041   3.964 -0.1043  0.0104  0.3040
 3760SOL    HW214812   3.931   0.044   3.973 -0.0303  0.1409  1.0925
 3760SOL    HW314813   4.044  -0.046   3.929 -0.5057 -0.0584  0.2644
 3760SOL    MW414814   4.016   0.030   3.960 -0.4542 -0.5758 -0.5839
 3761SOL     OW14815   2.708   3.190   4.140  0.7526 -0.3222  0.5523
 3761SOL    HW214816   2.649   3.266   4.139  0.6534 -0.3930 -0.6070
 3761SOL    HW314817   2.773   3.210   4.073  2.0140 -0.3022  1.7267
 3761SOL    MW414818   2.709   3.203   4.131  0.5396 -0.0442  0.2545
 3762SOL     OW14819   6.375   3.582   5.558 -0.0352  0.1296  0.3925
 3762SOL    HW214820   6.457   3.556   5.599  1.0595  0.8847 -1.2119
 3762SOL    HW314821   6.359   3.671   5.589 -0.2491 -0.0182  0.7062
 3762SOL    MW414822   6.383   3.591   5.567 -0.0307 -0.2202 -0.4060
 3763SOL     OW14823   5.440   2.366   1.638  0.6032  0.2358 -0.1650
 3763SOL    HW214824   5.504   2.327   1.579  2.3100  1.9335  0.4831
 3763SOL    HW314825   5.413   2.293   1.695  1.2748 -0.7019 -1.0135
 3763SOL    MW414826   5.445   2.351   1.638  0.3309 -0.2909  0.2075
 3764SOL     OW14827   3.609   3.815   2.194 -0.3229  0.2444  0.1557
 3764SOL    HW214828   3.574   3.782   2.112  0.9982 -2.5540  0.5965
 3764SOL    HW314829   3.664   3.889   2.169  0.6033 -0.9660 -1.6287
 3764SOL    MW414830   3.612   3.820   2.180 -0.1355 -0.0766 -0.6648
 3765SOL     OW14831   2.648   1.803   5.951 -0.5788 -0.3189  0.2194
 3765SOL    HW214832   2.687   1.874   6.002  0.2747 -0.7132  0.1198
 3765SOL    HW314833   2.689   1.723   5.984 -0.2556 -0.6105 -0.8489
 3765SOL    MW414834   2.658   1.802   5.962  0.3110 -0.6108 -0.5201
 3766SOL     OW14835   2.645   0.522   4.081 -0.2697 -0.0564  0.6891
 3766SOL    HW214836   2.726   0.473   4.072 -0.7663 -0.7243 -0.2516
 3766SOL    HW314837   2.580   0.458   4.110 -0.8712  0.0804 -0.3186
 3766SOL    MW414838   2.647   0.507   4.084  0.0745 -0.2627 -0.6379
 3767SOL     OW14839   3.961   1.306   0.929 -0.3921 -0.7925  0.0161
 3767SOL    HW214840   4.015   1.312   1.008 -1.2861  1.0259  0.5466
 3767SOL    HW314841   3.927   1.216   0.930 -0.4102 -0.8114  1.7453
 3767SOL    MW414842   3.963   1.295   0.940  0.1554 -0.1987 -0.1122
 3768SOL     OW14843   5.104   6.357   5.628 -0.1451  0.6494 -0.0621
 3768SOL    HW214844   5.060   6.362   5.713  0.1723 -0.4817  0.1831
 3768SOL    HW314845   5.033   6.356   5.564 -0.5098 -0.9195  0.3171
 3768SOL    MW414846   5.089   6.357   5.631  0.1404  0.1790 -0.6504
 3769SOL     OW14847   1.744   3.985   5.643  0.5318  0.5640 -0.3325
 3769SOL    HW214848   1.792   4.059   5.679  1.4218  0.3500 -1.0484
 3769SOL    HW314849   1.787   3.908   5.681  1.2700  0.3462 -1.5682
 3769SOL    MW414850   1.756   3.985   5.653  0.4775  0.1288 -0.0091
 3770SOL     OW14851   0.363   5.778   6.294 -0.3103  0.0601  0.2787
 3770SOL    HW214852   0.282   5.766   6.343  0.0031  0.0782  0.8045
 3770SOL    HW314853   0.392   5.689   6.274 -1.5609  0.0295 -1.7872
 3770SOL    MW414854   0.356   5.765   6.298 -0.1072  0.1496 -0.4335
 3771SOL     OW14855   1.594   1.817   4.272  0.0785 -0.2507 -0.6352
 3771SOL    HW214856   1.505   1.820   4.239  0.0663  1.7954 -0.5186
 3771SOL    HW314857   1.584   1.801   4.366 -0.1380 -0.4849 -0.6968
 3771SOL    MW414858   1.581   1.815   4.280 -0.2368  0.4693 -0.1084
 3772SOL     OW14859   4.064   2.825   0.768  1.0850 -0.7535  0.0736
 3772SOL    HW214860   3.990   2.848   0.825  0.2823 -1.7203 -0.5323
 3772SOL    HW314861   4.081   2.904   0.717 -0.0044 -0.7188 -0.2645
 3772SOL    MW414862   4.056   2.838   0.769  0.7680  0.2114 -0.5087
 3773SOL     OW14863   1.627   0.909   1.451 -0.0047  0.0630 -0.3621
 3773SOL    HW214864   1.570   0.832   1.451 -0.6103  0.4982  0.4760
 3773SOL    HW314865   1.567   0.984   1.449  0.4814  0.5413  1.0855
 3773SOL    MW414866   1.612   0.909   1.451  0.4578 -0.0231 -0.6061
 3774SOL     OW14867   4.820   6.006   2.070 -0.1790 -0.1384  0.0652
 3774SOL    HW214868   4.726   5.996   2.060 -0.4938  2.5220 -0.4357
 3774SOL    HW314869   4.830   6.066   2.145  1.0961 -0.2164 -0.0143
 3774SOL    MW414870   4.809   6.013   2.079  0.8935  0.2344 -0.6117
 3775SOL     OW14871   0.901   2.971   0.902 -0.4174 -0.1845 -0.3756
 3775SOL    HW214872   0.949   2.964   0.819 -1.6470  0.8751 -1.2189
 3775SOL    HW314873   0.964   2.943   0.968  0.5294 -1.2715 -1.6777
 3775SOL    MW414874   0.916   2.967   0.900  0.1638 -0.1383 -0.3091
 3776SOL     OW14875   4.544   0.812   1.925  0.5385  0.2446 -0.1912
 3776SOL    HW214876   4.513   0.827   1.836  0.4109 -0.6914 -0.3081
 3776SOL    HW314877   4.566   0.899   1.957 -3.3955  1.2412  0.3550
 3776SOL    MW414878   4.543   0.826   1.918 -0.3138  0.3806 -0.3015
 3777SOL     OW14879   0.875   2.419   5.113  0.0866  0.0518 -0.0663
 3777SOL    HW214880   0.785   2.396   5.089 -0.1336  1.3302 -0.5722
 3777SOL    HW314881   0.869   2.509   5.144  1.1429  0.0204  0.2625
 3777SOL    MW414882   0.862   2.428   5.114  0.3620  0.1352  0.6249
 3778SOL     OW14883   0.054   0.431   3.378 -0.0437  0.3131 -0.1881
 3778SOL    HW214884   0.111   0.501   3.413 -0.5131  0.2504  0.7344
 3778SOL    HW314885  -0.026   0.477   3.351  1.0013  0.6691 -3.0845
 3778SOL    MW414886   0.051   0.446   3.379 -0.7132  0.2899 -0.1310
 3779SOL     OW14887   2.288   1.856   1.812 -0.4727 -0.1661  0.1028
 3779SOL    HW214888   2.338   1.928   1.851  0.8231  0.0240 -1.7639
 3779SOL    HW314889   2.223   1.833   1.878  0.1815  1.5832  1.4302
 3779SOL    MW414890   2.286   1.863   1.826 -0.3027 -0.4066 -0.0100
 3780SOL     OW14891   6.024   2.487   4.922 -0.0147  0.1356  0.0489
 3780SOL    HW214892   5.954   2.513   4.983  1.0800  3.5778  0.0484
 3780SOL    HW314893   5.987   2.504   4.835 -0.3164 -1.3795 -0.1533
 3780SOL    MW414894   6.010   2.493   4.919  0.0561  0.0062 -0.3724
 3781SOL     OW14895   2.231   5.288   1.203  0.6749  0.3511  0.5145
 3781SOL    HW214896   2.152   5.342   1.198 -0.1686 -0.8419  0.6226
 3781SOL    HW314897   2.267   5.307   1.290 -2.1369 -2.5832  2.5248
 3781SOL    MW414898   2.226   5.298   1.214  0.2426 -0.4822 -0.4477
 3782SOL     OW14899   5.435   5.542   1.032  0.3386 -0.0969  0.4663
 3782SOL    HW214900   5.483   5.460   1.048 -0.8765 -0.7639  0.8674
 3782SOL    HW314901   5.343   5.518   1.045 -0.2667  0.7492 -1.8750
 3782SOL    MW414902   5.429   5.528   1.036  0.0288  0.0999 -0.1665
 3783SOL     OW14903   0.743   2.241   4.736  0.8684  0.1811  0.2521
 3783SOL    HW214904   0.718   2.332   4.744  0.3632  0.0653 -0.0005
 3783SOL    HW314905   0.672   2.200   4.687  1.3952 -0.2122 -0.2002
 3783SOL    MW414906   0.731   2.247   4.730  0.4215 -0.2317 -0.4370
 3784SOL     OW14907   5.094   5.013   2.761 -0.3340  0.4049  0.0569
 3784SOL    HW214908   5.072   5.100   2.728 -2.0451  0.5969  1.5488
 3784SOL    HW314909   5.011   4.964   2.756  0.5603 -1.1192 -0.6280
 3784SOL    MW414910   5.080   5.018   2.756 -1.0066 -0.4159  0.2109
 3785SOL     OW14911   0.700   0.882   0.264 -0.7372 -0.1707  0.2416
 3785SOL    HW214912   0.652   0.964   0.270 -2.1926 -0.7680 -1.9527
 3785SOL    HW314913   0.761   0.894   0.191 -1.7572 -1.3354 -0.8674
 3785SOL    MW414914   0.702   0.894   0.255  0.3669  0.1447  0.2578
 3786SOL     OW14915   3.099   2.856   6.054  0.2052  0.0683 -0.0594
 3786SOL    HW214916   3.031   2.890   5.996 -0.2474 -0.1357  0.3464
 3786SOL    HW314917   3.066   2.872   6.142  0.9520  0.5115  0.1501
 3786SOL    MW414918   3.086   2.863   6.058 -0.1133  0.1870  0.4197
 3787SOL     OW14919   0.738   5.069   6.133 -0.1999 -0.1285 -0.3228
 3787SOL    HW214920   0.801   5.140   6.121 -2.4451  2.0652  0.0914
 3787SOL    HW314921   0.746   5.017   6.053  0.9636  1.0509 -1.0211
 3787SOL    MW414922   0.748   5.072   6.121  0.0851  0.0107  0.3967
 3788SOL     OW14923   2.174   2.719   3.460 -0.4900  0.7115  0.8200
 3788SOL    HW214924   2.125   2.689   3.384  1.8728  1.7225 -1.2513
 3788SOL    HW314925   2.113   2.775   3.508 -2.2577 -0.5274  0.0991
 3788SOL    MW414926   2.159   2.723   3.457 -0.0194  0.1723  0.0686
 3789SOL     OW14927   3.245   6.202   1.208  0.1131 -0.4740  0.3569
 3789SOL    HW214928   3.196   6.189   1.290 -2.5474 -0.3790 -1.1064
 3789SOL    HW314929   3.194   6.155   1.142  2.2713 -0.6736 -1.2714
 3789SOL    MW414930   3.232   6.194   1.210  0.5447 -0.1937  0.0628
 3790SOL     OW14931   4.689   5.800   4.759 -0.0149  0.5753  0.8634
 3790SOL    HW214932   4.647   5.781   4.676  0.5448 -0.1648  0.7288
 3790SOL    HW314933   4.621   5.784   4.825  0.1842 -1.2444  0.6989
 3790SOL    MW414934   4.675   5.795   4.757  0.5181  0.2927  0.3814
 3791SOL     OW14935   1.690   2.860   4.323 -0.4385 -0.4704  0.1800
 3791SOL    HW214936   1.717   2.950   4.301  1.7538 -0.7728  1.3529
 3791SOL    HW314937   1.763   2.806   4.295 -1.4867 -1.8510  0.0431
 3791SOL    MW414938   1.703   2.865   4.317  0.0651 -0.2112 -0.1414
 3792SOL     OW14939   2.340   4.899   3.175  0.5658  1.2223  0.1661
 3792SOL    HW214940   2.256   4.881   3.218  2.1585  0.6045  3.3565
 3792SOL    HW314941   2.394   4.823   3.196  2.7094  2.7364  0.4888
 3792SOL    MW414942   2.336   4.887   3.183 -0.3986  1.0145 -0.1921
 3793SOL     OW14943   0.414   5.383   3.466 -0.0217  0.1946 -0.2791
 3793SOL    HW214944   0.427   5.427   3.382  0.4318 -0.7710 -0.7340
 3793SOL    HW314945   0.502   5.366   3.499 -0.1848 -0.1629 -0.0131
 3793SOL    MW414946   0.427   5.386   3.459  0.3862  0.7790 -0.1132
 3794SOL     OW14947   2.085   6.199   5.823 -0.5422  0.0676  0.1578
 3794SOL    HW214948   1.999   6.170   5.794  1.2422 -2.2247 -3.7727
 3794SOL    HW314949   2.121   6.246   5.747  2.2345 -0.5504  0.9875
 3794SOL    MW414950   2.079   6.201   5.809 -0.3152  0.0624 -0.0116
 3795SOL     OW14951   6.197   6.039   0.443 -0.1848 -0.2322 -0.7525
 3795SOL    HW214952   6.112   6.076   0.419 -0.2844  0.8165  1.0222
 3795SOL    HW314953   6.206   6.059   0.536  1.8635 -0.6301 -0.8264
 3795SOL    MW414954   6.187   6.047   0.452  0.8429 -0.2930  0.2151
 3796SOL     OW14955   5.257   5.938   0.185  0.0348  0.2989 -0.2071
 3796SOL    HW214956   5.258   5.847   0.154 -1.5880  0.0785  0.2791
 3796SOL    HW314957   5.167   5.953   0.212  1.1103  0.6984  3.7208
 3796SOL    MW414958   5.245   5.928   0.184  0.2643  0.0625  0.0591
 3797SOL     OW14959   5.746   2.989   4.481 -0.1269 -0.0737 -0.3334
 3797SOL    HW214960   5.707   2.985   4.568 -2.0968  2.4147 -0.9605
 3797SOL    HW314961   5.817   2.925   4.483 -0.1187 -0.1483  3.0485
 3797SOL    MW414962   5.750   2.980   4.493 -0.2674 -0.1047 -0.6760
 3798SOL     OW14963   3.470   0.750   4.677  0.0766 -0.1117  0.1731
 3798SOL    HW214964   3.451   0.821   4.739 -1.2896 -2.0234  2.1185
 3798SOL    HW314965   3.391   0.744   4.623  0.3907  0.1573 -0.3181
 3798SOL    MW414966   3.457   0.759   4.678  0.3979  0.0138 -0.3218
 3799SOL     OW14967   1.411   0.070   3.277 -0.8489  0.2626 -0.0673
 3799SOL    HW214968   1.434   0.035   3.191 -0.2249  1.3078 -0.3411
 3799SOL    HW314969   1.402  -0.007   3.333 -1.8503 -0.4697 -1.1986
 3799SOL    MW414970   1.413   0.055   3.273 -0.4538 -0.1497  0.0067
 3800SOL     OW14971   5.180   1.070   5.267  0.7183  0.2576  0.0405
 3800SOL    HW214972   5.272   1.070   5.294  1.3917  1.6535 -1.9940
 3800SOL    HW314973   5.172   0.994   5.209  0.1163 -0.8378  1.5072
 3800SOL    MW414974   5.191   1.060   5.263 -0.6715  0.0013 -0.3548
 3801SOL     OW14975   4.041   3.882   0.263  0.3010 -0.0166 -0.0989
 3801SOL    HW214976   4.020   3.808   0.320  2.3639 -1.0485 -0.5458
 3801SOL    HW314977   4.076   3.948   0.323  1.5194 -0.7119  0.0129
 3801SOL    MW414978   4.043   3.881   0.279 -0.8362 -0.3076  0.3638
 3802SOL     OW14979   6.059   4.001   1.789  0.6889  0.2507  0.1127
 3802SOL    HW214980   6.148   3.987   1.755  1.0320 -0.5245  1.2676
 3802SOL    HW314981   6.022   3.913   1.795  0.4858  0.4001  1.3115
 3802SOL    MW414982   6.066   3.987   1.785  0.1292 -0.6736  0.1067
 3803SOL     OW14983   5.076   5.665   1.115  0.1374  0.3437 -0.2471
 3803SOL    HW214984   5.057   5.578   1.150 -2.6496  1.2516  0.7856
 3803SOL    HW314985   5.080   5.722   1.193  1.6971  1.1985 -0.9141
 3803SOL    MW414986   5.074   5.661   1.130 -0.4439 -0.2747 -0.1404
 3804SOL     OW14987   1.059   1.670   5.489  0.8076  0.9553 -0.6644
 3804SOL    HW214988   1.099   1.620   5.561  0.4895 -0.7420 -1.6000
 3804SOL    HW314989   1.133   1.709   5.443  1.3966 -1.3097 -1.7779
 3804SOL    MW414990   1.074   1.668   5.493  0.0831 -0.2940  0.2291
 3805SOL     OW14991   4.140   2.309   3.700 -0.0084  0.2187  0.3223
 3805SOL    HW214992   4.129   2.219   3.730 -0.0975  0.2568  0.4069
 3805SOL    HW314993   4.073   2.358   3.749 -0.3788  0.2256 -0.1869
 3805SOL    MW414994   4.130   2.303   3.711  0.5194 -0.3830 -0.1485
 3806SOL     OW14995   1.207   3.932   4.650  0.1537 -0.4494  0.1927
 3806SOL    HW214996   1.193   3.894   4.563  1.3373 -1.3115  0.3401
 3806SOL    HW314997   1.182   3.863   4.711  1.3677 -0.6578  0.4860
 3806SOL    MW414998   1.202   3.918   4.647 -0.3957 -0.4111 -0.2968
 3807SOL     OW14999   1.670   1.667   5.938  0.1282 -0.1374 -0.0395
 3807SOL    HW215000   1.611   1.667   6.013  0.1975  0.3136  0.0165
 3807SOL    HW315001   1.613   1.669   5.861  0.0656  0.5421  0.0164
 3807SOL    MW415002   1.655   1.667   5.937 -0.2500  0.5252  0.0131
 3808SOL     OW15003   0.024   3.614   6.095  0.2291 -0.5761  0.1492
 3808SOL    HW215004   0.110   3.573   6.082 -0.0789 -1.1198 -0.2035
 3808SOL    HW315005   0.035   3.669   6.172  0.9762 -0.4240 -0.0589
 3808SOL    MW415006   0.037   3.616   6.103  0.2830  0.7669  0.2275
 3809SOL     OW15007   4.848   0.144   3.094  0.2496  0.3361  0.0361
 3809SOL    HW215008   4.943   0.139   3.102  0.1335 -0.6318  1.0319
 3809SOL    HW315009   4.833   0.216   3.033  1.5861  1.2789  0.7555
 3809SOL    MW415010   4.858   0.153   3.087  0.0382  0.1130 -0.6812
 3810SOL     OW15011   3.084   4.787   2.493  0.9621 -0.2576  0.2954
 3810SOL    HW215012   3.010   4.836   2.528  1.1647  0.0033  0.3635
 3810SOL    HW315013   3.144   4.854   2.461  0.0887 -0.4981 -2.0398
 3810SOL    MW415014   3.082   4.802   2.493  0.2932 -0.3635  0.5947
 3811SOL     OW15015   3.778   2.243   1.180 -0.3272  0.5909 -0.0839
 3811SOL    HW215016   3.873   2.230   1.173 -0.0864  1.0510  1.7035
 3811SOL    HW315017   3.761   2.242   1.274 -1.7930  2.6053 -0.2689
 3811SOL    MW415018   3.788   2.241   1.191 -0.1845  0.3553  0.0211
 3812SOL     OW15019   2.926   5.444   0.932 -0.2334  0.5191 -0.4988
 3812SOL    HW215020   2.841   5.399   0.931  0.0450 -0.0998  0.9141
 3812SOL    HW315021   2.935   5.480   0.844 -1.4579 -0.3533 -1.0158
 3812SOL    MW415022   2.916   5.443   0.920  0.0477 -0.1321 -0.5032
 3813SOL     OW15023   5.409   5.717   1.919  0.4146  0.3043  0.0735
 3813SOL    HW215024   5.487   5.770   1.905 -0.6592  1.8321 -0.4487
 3813SOL    HW315025   5.426   5.636   1.872  1.0942  1.2106 -1.3222
 3813SOL    MW415026   5.421   5.714   1.911 -0.1159  0.2841  0.0172
 3814SOL     OW15027   1.973   4.037   0.852 -1.0383  0.9881  0.7232
 3814SOL    HW215028   1.997   4.121   0.889 -0.4976  0.3457  1.8879
 3814SOL    HW315029   2.023   3.973   0.903 -2.2550 -0.1135  0.5918
 3814SOL    MW415030   1.982   4.039   0.863  0.1070  0.5670 -0.9099
 3815SOL     OW15031   4.526   3.858   4.027 -0.6003 -0.0254  0.7133
 3815SOL    HW215032   4.542   3.764   4.035 -3.3668 -0.4851  2.1184
 3815SOL    HW315033   4.518   3.873   3.933 -1.7390 -1.5527  0.5236
 3815SOL    MW415034   4.527   3.847   4.016 -0.0075 -0.1363  0.0907
 3816SOL     OW15035   1.907   2.506   2.918  0.1459  0.1888 -0.1398
 3816SOL    HW215036   1.843   2.575   2.905 -1.4956 -0.9943  1.2075
 3816SOL    HW315037   1.974   2.545   2.974  1.2575  1.7612 -2.4037
 3816SOL    MW415038   1.907   2.520   2.923  0.8245 -0.1401  0.3181
 3817SOL     OW15039   3.946   2.413   5.981 -0.2756  0.3755 -0.3183
 3817SOL    HW215040   3.878   2.439   6.043 -0.4857 -0.1214 -0.3405
 3817SOL    HW315041   3.919   2.452   5.898  0.9157  2.5757  0.2314
 3817SOL    MW415042   3.934   2.422   5.978 -0.3302 -0.0382  0.5929
 3818SOL     OW15043   0.996   4.119   4.924  0.1654  0.1975  0.2802
 3818SOL    HW215044   1.041   4.198   4.955 -0.6493  0.8812 -0.2296
 3818SOL    HW315045   0.981   4.135   4.831  1.6122 -1.3656 -0.2516
 3818SOL    MW415046   1.000   4.132   4.916 -0.1964 -0.2229  0.1886
 3819SOL     OW15047   2.664   3.743   0.187 -0.0056  0.2697 -0.3663
 3819SOL    HW215048   2.755   3.769   0.202 -0.3875  0.4195  2.0304
 3819SOL    HW315049   2.612   3.811   0.229 -1.3285  0.8978 -2.8530
 3819SOL    MW415050   2.669   3.755   0.195 -0.0722  0.0678 -0.1422
 3820SOL     OW15051   0.310   3.596   2.359 -0.7463 -0.0701 -0.0788
 3820SOL    HW215052   0.289   3.660   2.428  2.5403  0.7416  0.3487
 3820SOL    HW315053   0.341   3.519   2.407  0.2965  0.0120 -0.5948
 3820SOL    MW415054   0.311   3.595   2.375 -0.3792 -0.0956  0.2332
 3821SOL     OW15055   1.676   4.385   1.685  0.0099 -0.2756 -0.5094
 3821SOL    HW215056   1.701   4.329   1.611 -0.1133 -0.9462 -0.0459
 3821SOL    HW315057   1.580   4.384   1.683  0.0045  0.2737 -0.7592
 3821SOL    MW415058   1.666   4.378   1.675  0.2614  0.3938 -0.1475
 3822SOL     OW15059   3.895   1.924   0.557 -0.3527  0.0749  0.1241
 3822SOL    HW215060   3.962   1.893   0.618  2.0129 -1.1462 -2.8171
 3822SOL    HW315061   3.902   2.019   0.559  1.3075 -0.0267  0.1005
 3822SOL    MW415062   3.905   1.933   0.565 -0.2864 -0.1298 -0.2930
 3823SOL     OW15063   5.978   3.698   1.725 -0.5323  0.2558 -0.4157
 3823SOL    HW215064   6.062   3.653   1.716  0.2713  1.8302 -1.0818
 3823SOL    HW315065   5.968   3.711   1.819  1.3192  2.4289 -0.4452
 3823SOL    MW415066   5.987   3.694   1.736 -0.1162 -0.1268 -0.2988
 3824SOL     OW15067   5.788   3.345   3.719  0.0341  0.0998  0.0918
 3824SOL    HW215068   5.741   3.374   3.797  1.0457  0.3095  0.6269
 3824SOL    HW315069   5.732   3.373   3.646 -1.1175 -0.4555  0.7309
 3824SOL    MW415070   5.774   3.352   3.719  0.2240 -0.0960  0.4644
 3825SOL     OW15071   4.632   4.939   4.243 -0.3380  0.1199 -0.3218
 3825SOL    HW215072   4.712   4.886   4.243  0.6090  1.4912 -0.3818
 3825SOL    HW315073   4.662   5.027   4.221 -2.0462  0.4373 -1.5599
 3825SOL    MW415074   4.646   4.944   4.240  0.2107 -0.7011 -0.4260
 3826SOL     OW15075   4.385   0.806   2.620  0.3100 -0.4304 -0.0280
 3826SOL    HW215076   4.373   0.844   2.707 -0.0857 -0.4628 -0.0653
 3826SOL    HW315077   4.370   0.878   2.559 -0.5887 -0.6609 -0.1039
 3826SOL    MW415078   4.381   0.820   2.623 -0.0710  0.0811 -0.1175
 3827SOL     OW15079   1.265   3.743   6.360 -0.3096  0.0104 -0.7043
 3827SOL    HW215080   1.193   3.700   6.406 -1.3646 -0.8736 -3.0081
 3827SOL    HW315081   1.332   3.757   6.427 -1.9805 -0.6002  1.1769
 3827SOL    MW415082   1.264   3.739   6.375 -0.0917  0.8877 -0.1331
 3828SOL     OW15083   0.582   2.658   6.107 -0.1030  0.9939  0.0738
 3828SOL    HW215084   0.491   2.682   6.126 -1.1254 -2.5992  0.4958
 3828SOL    HW315085   0.625   2.660   6.192 -0.7772 -0.6366  0.4997
 3828SOL    MW415086   0.576   2.661   6.121 -0.3181  0.3261  0.0205
 3829SOL     OW15087   0.738   3.033   1.149 -0.4001 -0.3047  0.4253
 3829SOL    HW215088   0.735   2.941   1.123  1.5254 -0.1735 -0.4032
 3829SOL    HW315089   0.776   3.079   1.073 -0.5752  1.0517  1.1217
 3829SOL    MW415090   0.742   3.027   1.135  0.0825 -0.6846 -0.3592
 3830SOL     OW15091   4.249   1.447   2.949  0.0175 -0.2329  0.4047
 3830SOL    HW215092   4.165   1.433   2.993 -0.5227  1.9638  0.2028
 3830SOL    HW315093   4.272   1.362   2.913 -2.3249 -0.8274  0.1554
 3830SOL    MW415094   4.241   1.434   2.950 -0.1345 -0.2170  0.7097
 3831SOL     OW15095   1.987   3.186   1.737 -0.3015  0.1063 -0.2300
 3831SOL    HW215096   1.906   3.138   1.752  0.4994 -1.2365 -0.0537
 3831SOL    HW315097   1.971   3.273   1.773 -2.2880  0.4852 -1.8511
 3831SOL    MW415098   1.974   3.191   1.744  0.1866 -0.0953 -0.2412
 3832SOL     OW15099   1.256   0.053   0.885  0.3678  0.0015  0.4258
 3832SOL    HW215100   1.305  -0.024   0.913 -1.1153 -1.9258 -1.9120
 3832SOL    HW315101   1.188   0.064   0.952 -1.9866 -3.4116 -1.0785
 3832SOL    MW415102   1.253   0.044   0.897 -0.1321 -0.0817  0.2004
 3833SOL     OW15103   1.630   5.247   0.019  0.0984  0.2727 -0.0696
 3833SOL    HW215104   1.597   5.159   0.006  1.8706 -0.6177  1.0140
 3833SOL    HW315105   1.664   5.273  -0.067  0.2746 -0.4187 -0.2111
 3833SOL    MW415106   1.630   5.239   0.006  0.1197  0.2652  0.0721
 3834SOL     OW15107   3.690   4.067   5.877  0.7908  1.1195  0.5363
 3834SOL    HW215108   3.781   4.037   5.870  0.5797  0.7340 -0.7465
 3834SOL    HW315109   3.664   4.086   5.787  0.1998  3.0568  1.0599
 3834SOL    MW415110   3.699   4.066   5.864 -0.3977 -0.1409 -0.1670
 3835SOL     OW15111   5.773   3.993   0.208  0.2798 -0.4350  0.3179
 3835SOL    HW215112   5.720   3.982   0.129  1.9752  0.5393 -1.0356
 3835SOL    HW315113   5.841   3.926   0.202  1.8909  1.1929 -0.3800
 3835SOL    MW415114   5.775   3.983   0.197  0.1094  0.5713 -0.8143
 3836SOL     OW15115   1.776   1.483   4.432  0.0588 -0.1037  0.5485
 3836SOL    HW215116   1.746   1.472   4.342 -1.2628 -1.5814  1.1319
 3836SOL    HW315117   1.844   1.550   4.426  0.3504 -0.5106 -1.6135
 3836SOL    MW415118   1.781   1.491   4.419  0.2242  0.3366  0.4033
 3837SOL     OW15119   1.810   5.764   2.404 -0.2133  0.8238 -0.3438
 3837SOL    HW215120   1.743   5.738   2.468 -0.0504  1.1134 -0.0496
 3837SOL    HW315121   1.839   5.682   2.365 -0.4954  0.6653 -0.2244
 3837SOL    MW415122   1.805   5.750   2.407 -0.0955  0.4258 -0.0007
 3838SOL     OW15123   6.384   1.870   1.389 -0.2847  0.2374  0.2025
 3838SOL    HW215124   6.374   1.808   1.317 -2.9375  2.3421 -1.3993
 3838SOL    HW315125   6.341   1.827   1.463 -1.6586 -0.0924 -0.7488
 3838SOL    MW415126   6.377   1.856   1.389  0.3836 -0.1608  0.7291
 3839SOL     OW15127   1.476   3.679   1.649 -0.1263  0.6328  0.4021
 3839SOL    HW215128   1.516   3.643   1.728  2.3776  1.7877 -0.2057
 3839SOL    HW315129   1.398   3.626   1.634 -0.1068 -0.2788  3.0321
 3839SOL    MW415130   1.471   3.667   1.658  0.0395 -0.3958  0.1290
 3840SOL     OW15131   2.707   6.039   3.409 -0.3049 -0.0231  0.2042
 3840SOL    HW215132   2.700   5.956   3.456  0.7152 -0.3735 -0.2190
 3840SOL    HW315133   2.729   6.014   3.319 -0.1118  0.7003  0.0380
 3840SOL    MW415134   2.709   6.025   3.403 -0.0884 -0.2770  0.0982
 3841SOL     OW15135   2.612   5.991   5.146  0.1506  0.3324  0.5541
 3841SOL    HW215136   2.646   6.043   5.219  0.0860 -0.2213  0.9879
 3841SOL    HW315137   2.532   6.036   5.120 -0.1762  0.1698  1.2628
 3841SOL    MW415138   2.606   6.004   5.152 -0.0561 -0.6563 -0.3381
 3842SOL     OW15139   4.178   2.809   1.075  0.9019  0.3301  0.2605
 3842SOL    HW215140   4.106   2.768   1.027  2.0115 -2.4123  0.6935
 3842SOL    HW315141   4.171   2.902   1.056  0.0401 -0.3573 -3.5179
 3842SOL    MW415142   4.168   2.816   1.066  0.3081 -0.2904 -0.0237
 3843SOL     OW15143   2.153   1.313   1.435  0.6138  0.4206 -0.2054
 3843SOL    HW215144   2.228   1.256   1.419 -0.7975 -1.0520 -2.0020
 3843SOL    HW315145   2.172   1.355   1.519  2.4510 -1.5095  0.4186
 3843SOL    MW415146   2.166   1.311   1.444  0.5080 -0.1076 -0.3141
 3844SOL     OW15147   5.440   4.268   2.748 -0.1672 -0.5976  0.1748
 3844SOL    HW215148   5.510   4.326   2.776  0.1333 -1.1092  0.4853
 3844SOL    HW315149   5.398   4.315   2.675 -0.3171  0.2851  0.8118
 3844SOL    MW415150   5.443   4.282   2.742 -0.7047  0.0971 -0.1697
 3845SOL     OW15151   5.811   4.424   5.894  0.6502  0.7281  0.7040
 3845SOL    HW215152   5.741   4.489   5.890  0.3955  0.4099 -0.9867
 3845SOL    HW315153   5.836   4.420   5.986  1.7041  4.3078  0.7249
 3845SOL    MW415154   5.805   4.432   5.906 -0.3950 -0.4893 -0.6683
 3846SOL     OW15155   3.395   4.223   2.216  0.3811  0.0875  0.0591
 3846SOL    HW215156   3.451   4.283   2.265  0.2594 -0.5335  0.9754
 3846SOL    HW315157   3.456   4.173   2.161  0.9524 -1.6050  2.1162
 3846SOL    MW415158   3.411   4.224   2.215  0.1881  0.0999  0.1630
 3847SOL     OW15159   6.085   1.171   1.465  0.0730  0.2860  0.5459
 3847SOL    HW215160   6.171   1.133   1.446  0.3944 -0.7620  3.6813
 3847SOL    HW315161   6.027   1.132   1.399  1.7120  0.0343 -0.8359
 3847SOL    MW415162   6.089   1.161   1.454 -0.4874  0.7247  0.1783
 3848SOL     OW15163   0.296   0.243   2.794 -0.4416  0.0727 -0.4650
 3848SOL    HW215164   0.201   0.229   2.787 -0.5692  0.0638  1.0166
 3848SOL    HW315165   0.304   0.332   2.830  0.1534  0.4444 -1.4760
 3848SOL    MW415166   0.285   0.253   2.798  0.1329 -0.3069 -0.1434
 3849SOL     OW15167   4.600   6.056   4.899 -0.0448  0.1855  0.2007
 3849SOL    HW215168   4.531   6.058   4.832 -0.5829  0.6251  0.7552
 3849SOL    HW315169   4.567   5.995   4.965 -0.1017  0.7303  0.6775
 3849SOL    MW415170   4.586   6.048   4.898  0.1407 -0.2931 -0.2989
 3850SOL     OW15171   2.933   1.486   0.269  0.2998 -0.4092  0.0950
 3850SOL    HW215172   3.019   1.519   0.242  0.4039 -0.4448  0.3783
 3850SOL    HW315173   2.948   1.394   0.291 -0.4099 -1.3272 -2.7929
 3850SOL    MW415174   2.946   1.478   0.269  0.2403 -0.5896  0.0436
 3851SOL     OW15175   0.928   5.283   5.363 -0.5693 -0.4687  0.3794
 3851SOL    HW215176   0.839   5.310   5.340  0.3540  0.5910 -2.3556
 3851SOL    HW315177   0.952   5.220   5.295  2.6642  3.5260 -2.7141
 3851SOL    MW415178   0.919   5.279   5.351  0.3941  0.1158  0.3039
 3852SOL     OW15179   0.672   4.867   1.363  0.3870  0.0639  0.0801
 3852SOL    HW215180   0.706   4.845   1.276  1.7397  0.0089  0.6008
 3852SOL    HW315181   0.635   4.785   1.395  0.3278 -0.0374 -0.2354
 3852SOL    MW415182   0.672   4.853   1.356 -0.2448 -0.2966  0.0078
 3853SOL     OW15183   2.632   5.042   5.482  0.1561  0.1938  0.9535
 3853SOL    HW215184   2.591   4.967   5.438 -3.1905  2.8432 -0.8822
 3853SOL    HW315185   2.709   5.062   5.428 -0.1327 -0.5829  0.2321
 3853SOL    MW415186   2.637   5.035   5.469  0.1981 -0.3869 -0.7378
 3854SOL     OW15187   3.418   1.903   6.257  0.0074 -0.7255  0.6512
 3854SOL    HW215188   3.445   1.897   6.166 -3.0191 -1.0204 -0.3577
 3854SOL    HW315189   3.412   1.812   6.287 -0.7405 -0.7319  0.5154
 3854SOL    MW415190   3.421   1.890   6.249  0.0879  0.0135 -0.1356
 3855SOL     OW15191   4.436   0.353   0.103  0.1033  0.5401 -0.3032
 3855SOL    HW215192   4.345   0.366   0.127 -0.1654 -1.5012 -0.0211
 3855SOL    HW315193   4.461   0.432   0.056 -0.9096  2.4309  2.1533
 3855SOL    MW415194   4.428   0.365   0.100 -0.1163 -0.8646  0.6550
 3856SOL     OW15195   1.938   1.634   5.094  0.0351  0.3597  0.1946
 3856SOL    HW215196   1.917   1.718   5.135  0.3808 -0.6720  2.6685
 3856SOL    HW315197   1.876   1.627   5.021 -0.5364  2.3910  0.4175
 3856SOL    MW415198   1.927   1.644   5.090 -0.0539  0.0245  0.5706
 3857SOL     OW15199   2.445   5.376   5.219  0.0734 -0.1990  0.0518
 3857SOL    HW215200   2.514   5.390   5.154 -0.6860 -1.4803 -1.0989
 3857SOL    HW315201   2.378   5.441   5.197  0.3017  0.1120  0.2731
 3857SOL    MW415202   2.445   5.386   5.207 -0.1464  0.7082  0.1790
 3858SOL     OW15203   1.435   2.903   3.689  0.2031 -0.1167 -0.2160
 3858SOL    HW215204   1.519   2.919   3.646 -0.1824 -1.2129 -1.4396
 3858SOL    HW315205   1.454   2.836   3.754  0.2404 -0.6021 -0.7126
 3858SOL    MW415206   1.448   2.896   3.692  0.1240  0.3563  0.3107
 3859SOL     OW15207  -0.004   0.869   2.885  0.0525  0.0059 -0.2600
 3859SOL    HW215208   0.032   0.952   2.916 -0.9841  0.6747 -0.7867
 3859SOL    HW315209   0.068   0.827   2.838  1.4689 -0.7184  2.3253
 3859SOL    MW415210   0.010   0.874   2.883 -0.5738 -0.7951 -0.4133
 3860SOL     OW15211   0.862   2.028   3.199 -0.6270 -0.3086 -0.1948
 3860SOL    HW215212   0.796   2.097   3.197 -0.9806 -0.6586 -1.3122
 3860SOL    HW315213   0.821   1.954   3.155 -0.4342 -1.4295  1.4575
 3860SOL    MW415214   0.848   2.027   3.193 -0.3084  0.1927 -0.3569
 3861SOL     OW15215   5.266   3.734   3.646  0.3446  0.1240  0.5323
 3861SOL    HW215216   5.320   3.686   3.584  3.0482  0.9894  2.0322
 3861SOL    HW315217   5.227   3.667   3.702 -0.1746 -0.5220 -0.5763
 3861SOL    MW415218   5.268   3.719   3.646 -0.1053 -0.3610  0.0535
 3862SOL     OW15219   3.410   2.630   0.051  0.0204 -0.3776 -0.7224
 3862SOL    HW215220   3.336   2.638   0.111  1.6449 -0.3826  1.3919
 3862SOL    HW315221   3.408   2.539   0.024  0.5053 -0.9736  1.1020
 3862SOL    MW415222   3.400   2.619   0.056  0.0025  0.2727 -0.3540
 3863SOL     OW15223   3.992   5.963   4.489  0.0674 -0.2356 -0.4154
 3863SOL    HW215224   3.902   5.976   4.462  0.5108  1.3915 -1.2362
 3863SOL    HW315225   4.013   6.040   4.542  1.1907 -0.1975 -0.8824
 3863SOL    MW415226   3.983   5.975   4.492 -0.1255  0.0562  0.2217
 3864SOL     OW15227   5.488   5.104   2.820  0.0060 -0.6326  0.0530
 3864SOL    HW215228   5.413   5.159   2.796  0.9158  0.7516  0.2471
 3864SOL    HW315229   5.515   5.137   2.906  2.5889  0.8838 -1.2350
 3864SOL    MW415230   5.482   5.116   2.828 -0.3644 -0.4481 -0.5239
 3865SOL     OW15231   4.847   1.659   2.528 -0.0891 -0.4720 -0.2389
 3865SOL    HW215232   4.910   1.621   2.467 -0.8630 -2.7917  0.3193
 3865SOL    HW315233   4.855   1.606   2.608 -0.8152  0.9395  0.8276
 3865SOL    MW415234   4.856   1.647   2.531  0.3443  0.0474  0.1306
 3866SOL     OW15235   2.230   1.666   4.844  0.2887 -0.2887 -0.0853
 3866SOL    HW215236   2.288   1.721   4.790 -0.7405  1.1229  0.2014
 3866SOL    HW315237   2.282   1.644   4.921  1.2251 -0.9867 -0.8963
 3866SOL    MW415238   2.245   1.670   4.847  0.7773 -0.0972  0.3173
 3867SOL     OW15239   0.638   3.382   2.263 -0.0748 -0.2658  0.3079
 3867SOL    HW215240   0.572   3.375   2.332 -0.9006 -1.8739 -0.5927
 3867SOL    HW315241   0.599   3.337   2.188  1.7308 -0.5370 -0.5130
 3867SOL    MW415242   0.624   3.375   2.262  0.0027 -0.3558 -0.0031
 3868SOL     OW15243   1.879   3.899   4.345  0.2645 -0.1940  0.1149
 3868SOL    HW215244   1.808   3.906   4.282 -0.9751 -1.6552  1.2512
 3868SOL    HW315245   1.847   3.945   4.423  0.4112 -1.0826  0.7253
 3868SOL    MW415246   1.866   3.906   4.347  0.9883  0.5571 -0.5664
 3869SOL     OW15247   5.094   4.246   0.537  0.1807 -0.4849  0.1018
 3869SOL    HW215248   5.053   4.184   0.476  0.3295  2.7541 -3.6923
 3869SOL    HW315249   5.188   4.238   0.519  0.1956  0.8104 -0.5244
 3869SOL    MW415250   5.101   4.237   0.526  0.3808 -0.0107  0.5048
 3870SOL     OW15251   1.186   2.170   3.427 -0.0934 -0.7069  0.2670
 3870SOL    HW215252   1.217   2.117   3.500  1.3318  0.1605  0.3359
 3870SOL    HW315253   1.139   2.243   3.469  2.1467  0.6972  0.4629
 3870SOL    MW415254   1.184   2.173   3.442 -0.9400  0.1998  0.1091
 3871SOL     OW15255   4.572   4.944   5.883 -0.3197  0.0994  0.0632
 3871SOL    HW215256   4.559   5.030   5.842 -0.0170  0.2481  0.2760
 3871SOL    HW315257   4.573   4.962   5.977 -2.7804 -0.4657  0.2723
 3871SOL    MW415258   4.570   4.958   5.890  0.0065  0.5612  0.1980
 3872SOL     OW15259   0.010   1.554   2.380 -0.4691  0.3415 -0.7149
 3872SOL    HW215260  -0.045   1.488   2.423 -1.1738  0.7311 -0.9937
 3872SOL    HW315261  -0.023   1.557   2.290  0.1090  0.4853 -0.9266
 3872SOL    MW415262  -0.002   1.546   2.374  0.6026 -0.0744 -0.3114
 3873SOL     OW15263   5.751   3.538   2.055  0.1291 -0.2165  0.2309
 3873SOL    HW215264   5.661   3.546   2.087  0.6271 -0.7484  1.8338
 3873SOL    HW315265   5.794   3.481   2.118  1.1751 -1.3293 -1.4185
 3873SOL    MW415266   5.744   3.532   2.067  0.3471  0.3739  0.0027
 3874SOL     OW15267   0.443   1.025   2.014  0.2590 -0.5370  0.0538
 3874SOL    HW215268   0.530   0.991   2.036  0.5249  0.5782  0.7736
 3874SOL    HW315269   0.384   0.978   2.072  0.1741 -2.3519 -1.4152
 3874SOL    MW415270   0.447   1.014   2.025 -0.1914  0.1047  0.2069
 3875SOL     OW15271   0.234   4.578   0.154 -0.4170  0.0611  0.2049
 3875SOL    HW215272   0.206   4.490   0.182 -1.4390  0.7806  1.5832
 3875SOL    HW315273   0.233   4.574   0.058  1.0576 -1.8668  0.2175
 3875SOL    MW415274   0.230   4.566   0.145  0.2045 -0.2440 -0.0870
 3876SOL     OW15275   3.953   0.278   6.007  0.0001 -0.4919  0.0463
 3876SOL    HW215276   3.873   0.248   6.049 -2.1539  1.7571 -2.1458
 3876SOL    HW315277   4.005   0.198   5.995 -2.5189 -2.2754  0.2849
 3876SOL    MW415278   3.950   0.264   6.011 -0.5490 -0.1645  0.6878
 3877SOL     OW15279   1.365   5.836   6.358  0.2031 -0.2369  0.6937
 3877SOL    HW215280   1.389   5.837   6.451  0.3000 -0.6052  0.6740
 3877SOL    HW315281   1.448   5.822   6.312 -0.0892 -1.9672  0.6450
 3877SOL    MW415282   1.379   5.834   6.364 -0.7839  0.1818  0.2421
 3878SOL     OW15283   4.727   3.199   2.331 -0.6933 -0.4808  0.5031
 3878SOL    HW215284   4.785   3.143   2.382  0.1294  0.9181  1.1861
 3878SOL    HW315285   4.646   3.203   2.382 -0.3051 -0.0583  1.1009
 3878SOL    MW415286   4.724   3.192   2.345 -0.4608 -0.7429 -0.3044
 3879SOL     OW15287   5.733   4.180   1.351 -0.1123  0.0964  0.7022
 3879SOL    HW215288   5.681   4.111   1.391 -0.4647 -0.9827 -1.4765
 3879SOL    HW315289   5.811   4.136   1.319 -0.7540  0.4739 -1.5308
 3879SOL    MW415290   5.736   4.165   1.352  0.8214 -0.6028  0.2671
 3880SOL     OW15291   2.250   4.253   3.588 -0.0050  0.1564 -0.4535
 3880SOL    HW215292   2.305   4.181   3.619  0.9396  0.6299 -0.9972
 3880SOL    HW315293   2.261   4.321   3.654 -0.9115 -0.1731  0.0683
 3880SOL    MW415294   2.258   4.252   3.601 -0.9282  0.1353 -0.0550
 3881SOL     OW15295   3.729   2.904   3.931  0.2938 -0.3457  0.1851
 3881SOL    HW215296   3.769   2.831   3.978 -0.7171 -1.7772 -1.0306
 3881SOL    HW315297   3.755   2.982   3.979 -0.1066 -1.6393  2.6681
 3881SOL    MW415298   3.737   2.905   3.943 -0.8099  0.0130  0.2821
 3882SOL     OW15299   0.437   5.006   2.644  0.8099 -0.3366 -0.2751
 3882SOL    HW215300   0.388   5.032   2.722  1.3113 -0.5842  0.1275
 3882SOL    HW315301   0.371   5.001   2.575  0.4332  0.3259  0.0266
 3882SOL    MW415302   0.422   5.008   2.645 -0.1459 -0.3070  0.4169
 3883SOL     OW15303   1.183   4.042   2.880 -0.2437 -0.1186  0.0143
 3883SOL    HW215304   1.107   4.088   2.845  0.1821  0.8087  0.2755
 3883SOL    HW315305   1.256   4.071   2.825  0.4973  1.6139  1.7701
 3883SOL    MW415306   1.183   4.052   2.869  0.2372  0.6145  0.6600
 3884SOL     OW15307   1.751   2.159   4.050 -0.2260  0.0242 -0.5997
 3884SOL    HW215308   1.712   2.150   4.137 -1.2035  0.6611 -0.9513
 3884SOL    HW315309   1.742   2.072   4.011 -2.8308  0.5093 -1.2657
 3884SOL    MW415310   1.745   2.146   4.057  0.2593 -0.6630 -0.1082
 3885SOL     OW15311   5.059   4.010   0.082 -0.4232  0.6731 -0.0698
 3885SOL    HW215312   4.980   4.064   0.080 -0.5035  0.5527 -0.1858
 3885SOL    HW315313   5.028   3.921   0.068 -0.3784  0.4878  0.9535
 3885SOL    MW415314   5.045   4.005   0.080  0.0077 -0.0319  0.2373
 3886SOL     OW15315   2.193   1.073   2.486 -0.6036 -0.1792  0.2863
 3886SOL    HW215316   2.118   1.097   2.431 -0.7737  0.0220  0.6009
 3886SOL    HW315317   2.222   1.156   2.523 -1.0323 -0.4112  1.1789
 3886SOL    MW415318   2.187   1.088   2.484  0.3537  0.2144 -0.0888
 3887SOL     OW15319   2.819   5.415   4.790 -0.7439  0.2748 -0.4202
 3887SOL    HW215320   2.870   5.350   4.838 -0.5804 -1.3214 -2.5812
 3887SOL    HW315321   2.845   5.499   4.828  0.8407 -0.7437  0.8823
 3887SOL    MW415322   2.830   5.418   4.801 -0.1850 -0.1934  0.5405
 3888SOL     OW15323   4.373   5.217   4.798  0.1551 -0.1676 -0.0056
 3888SOL    HW215324   4.427   5.171   4.863 -0.4937 -2.2628 -0.8771
 3888SOL    HW315325   4.288   5.227   4.841  0.6383  1.3853  0.6416
 3888SOL    MW415326   4.369   5.212   4.813  0.0785  0.0009  0.5003
 3889SOL     OW15327   0.157   1.193   1.688  0.7837 -0.4656  0.0410
 3889SOL    HW215328   0.113   1.114   1.719 -0.4116  0.3217  0.4258
 3889SOL    HW315329   0.235   1.200   1.743  1.5154 -1.9486 -0.7322
 3889SOL    MW415330   0.161   1.183   1.700  0.1461 -0.0176  0.0481
 3890SOL     OW15331   4.458   6.269   3.271  0.2934 -0.5423  0.1330
 3890SOL    HW215332   4.454   6.307   3.183 -1.5412 -1.0199 -0.0386
 3890SOL    HW315333   4.546   6.232   3.277  0.1378 -1.3925 -1.9085
 3890SOL    MW415334   4.469   6.269   3.260 -0.1909  0.0690 -0.7237
 3891SOL     OW15335   5.608   6.071   0.786  0.2526  0.6853 -0.0340
 3891SOL    HW215336   5.638   6.002   0.728  2.5491  0.7729  0.9435
 3891SOL    HW315337   5.512   6.062   0.787  0.3907 -1.4697 -1.1220
 3891SOL    MW415338   5.599   6.061   0.779 -0.0856 -0.0956  0.4208
 3892SOL     OW15339   1.255   0.856   6.415  0.0059  0.1381  0.0353
 3892SOL    HW215340   1.309   0.933   6.399  0.0386  0.3241  0.9589
 3892SOL    HW315341   1.170   0.877   6.376  0.3024  0.2543 -0.5392
 3892SOL    MW415342   1.251   0.869   6.408 -0.1012 -0.0184 -0.1844
 3893SOL     OW15343   1.353   2.418   3.649  0.0145  0.2244 -0.3391
 3893SOL    HW215344   1.436   2.429   3.695 -0.0219  0.4091 -0.3135
 3893SOL    HW315345   1.341   2.501   3.603 -0.7381  0.6660  0.6157
 3893SOL    MW415346   1.362   2.431   3.649 -0.0727 -0.6298  0.2082
 3894SOL     OW15347   5.140   3.198   5.632  0.6768  0.1192  0.0791
 3894SOL    HW215348   5.130   3.288   5.602  2.6759  0.6257  0.7506
 3894SOL    HW315349   5.126   3.145   5.554  1.9855  1.1780 -0.9186
 3894SOL    MW415350   5.137   3.203   5.618 -0.1067 -0.2783  0.9882
 3895SOL     OW15351   4.606   6.001   1.265  0.3772  0.1413  0.3843
 3895SOL    HW215352   4.670   6.066   1.237  0.6381 -0.3520 -0.1809
 3895SOL    HW315353   4.658   5.930   1.303  0.3103 -0.9447 -1.4299
 3895SOL    MW415354   4.621   6.000   1.266  0.7062  0.3131 -0.1744
 3896SOL     OW15355   1.434   1.968   1.776  0.1322 -0.2099  0.3446
 3896SOL    HW215356   1.361   1.948   1.717 -0.4096  0.9927  0.5844
 3896SOL    HW315357   1.394   1.971   1.863  0.5648 -0.0201  0.5376
 3896SOL    MW415358   1.419   1.966   1.780 -0.3069  0.3662 -0.4272
 3897SOL     OW15359   0.975   3.735   5.210 -0.2229  0.2211  0.0803
 3897SOL    HW215360   0.939   3.648   5.195 -1.5725  0.7241  0.2656
 3897SOL    HW315361   1.028   3.726   5.290 -1.3180 -0.1736  0.7819
 3897SOL    MW415362   0.977   3.722   5.219  0.3517 -0.3607 -0.7526
 3898SOL     OW15363   2.147   0.175   1.116 -0.0710  0.0604  0.1987
 3898SOL    HW215364   2.055   0.181   1.142 -0.2538  0.9272 -0.5754
 3898SOL    HW315365   2.196   0.185   1.198 -0.6472 -1.9996  0.8637
 3898SOL    MW415366   2.141   0.177   1.130 -0.2159 -0.1537  0.8763
 3899SOL     OW15367   5.426   3.144   0.666  0.7387 -0.1207  0.4914
 3899SOL    HW215368   5.508   3.139   0.715  0.8664 -0.1967  0.2695
 3899SOL    HW315369   5.435   3.221   0.610  1.0120 -0.6260 -0.1701
 3899SOL    MW415370   5.438   3.153   0.665  0.3342  0.0353 -0.2325
 3900SOL     OW15371   0.030   3.526   1.779  0.0205 -0.1467  0.1328
 3900SOL    HW215372   0.086   3.569   1.844 -0.0255  0.2385 -0.0808
 3900SOL    HW315373   0.046   3.432   1.792 -1.3855 -0.1951  1.9767
 3900SOL    MW415374   0.040   3.519   1.789  0.8054  0.8236  0.0992
 3901SOL     OW15375   2.338   2.414   1.761  0.0314 -1.1690  0.2208
 3901SOL    HW215376   2.404   2.426   1.692 -1.8506 -3.6628 -2.2255
 3901SOL    HW315377   2.361   2.330   1.801 -0.8262 -1.3648  0.3150
 3901SOL    MW415378   2.350   2.404   1.757 -0.3338  0.1648  0.6725
 3902SOL     OW15379   4.912   5.059   5.112 -0.2104  0.0374  0.7051
 3902SOL    HW215380   4.991   5.104   5.083 -1.2790  0.7308 -1.3339
 3902SOL    HW315381   4.940   5.006   5.186  2.1364  0.3331  0.1000
 3902SOL    MW415382   4.926   5.058   5.118 -0.1610 -0.0749 -0.2417
 3903SOL     OW15383   1.748   1.396   0.518 -0.5186 -0.5586 -0.0177
 3903SOL    HW215384   1.720   1.330   0.581 -2.6602 -0.8014 -1.1530
 3903SOL    HW315385   1.695   1.473   0.540  2.3220  1.1081  1.6547
 3903SOL    MW415386   1.737   1.398   0.529  0.5819  0.6051 -0.3222
 3904SOL     OW15387   1.351   4.497   0.545 -0.2545  0.1834  0.3383
 3904SOL    HW215388   1.434   4.452   0.527 -0.5003 -0.5012  0.8856
 3904SOL    HW315389   1.377   4.588   0.561  0.4293 -0.0798  0.7924
 3904SOL    MW415390   1.366   4.503   0.544 -0.3924  0.4828 -0.1116
 3905SOL     OW15391   0.244   3.343   0.749  0.6675  0.4213  0.0356
 3905SOL    HW215392   0.245   3.317   0.656  0.6499  1.2977 -0.2207
 3905SOL    HW315393   0.160   3.311   0.782  0.5730  0.3054 -0.3125
 3905SOL    MW415394   0.233   3.335   0.741  0.1365 -0.2779 -0.8618
 3906SOL     OW15395   1.530   4.767   2.809 -0.0314  0.3132  0.2457
 3906SOL    HW215396   1.575   4.702   2.863 -0.8973 -1.8244 -1.4916
 3906SOL    HW315397   1.482   4.716   2.743 -0.1135  2.7198 -1.7200
 3906SOL    MW415398   1.530   4.752   2.807  0.2897  0.0336 -0.1879
 3907SOL     OW15399   5.110   1.053   3.193 -0.4209 -0.0961 -0.2048
 3907SOL    HW215400   5.088   0.983   3.131 -0.2478  1.5649 -2.2500
 3907SOL    HW315401   5.081   1.133   3.150  1.3998  1.3236  1.0575
 3907SOL    MW415402   5.104   1.054   3.179  0.2383 -0.1426  0.3960
 3908SOL     OW15403   1.527   1.601   5.675  0.7575  0.1743 -0.0215
 3908SOL    HW215404   1.498   1.656   5.602 -0.1572 -0.3552 -0.0802
 3908SOL    HW315405   1.568   1.526   5.632  0.3666 -0.0575  0.0022
 3908SOL    MW415406   1.528   1.598   5.659  0.0014 -0.2592 -0.5758
 3909SOL     OW15407   1.251   5.088   2.455  0.2476  0.6929  0.3124
 3909SOL    HW215408   1.198   5.166   2.436 -0.1400 -0.0167 -1.8693
 3909SOL    HW315409   1.267   5.091   2.549 -3.0768  1.3320  0.9588
 3909SOL    MW415410   1.246   5.099   2.465  0.5927 -0.5068  0.2634
 3910SOL     OW15411   2.886   4.734   1.181  0.1935  0.2434  0.4586
 3910SOL    HW215412   2.967   4.760   1.138 -0.5826  1.3590 -0.3661
 3910SOL    HW315413   2.905   4.743   1.275  0.9672  0.6456  0.2708
 3910SOL    MW415414   2.899   4.738   1.188 -0.3070  0.4436  0.7473
 3911SOL     OW15415   6.023   6.388   0.303 -0.3823 -0.4910  0.1872
 3911SOL    HW215416   5.950   6.420   0.357  0.3169 -0.3221  1.0465
 3911SOL    HW315417   6.102   6.414   0.351  0.2418 -2.3719  0.2733
 3911SOL    MW415418   6.024   6.396   0.317 -0.4647 -0.4362 -0.7423
 3912SOL     OW15419   4.642   3.528   3.510 -0.0179  0.4263 -0.0086
 3912SOL    HW215420   4.692   3.463   3.461  0.0237  0.9404 -0.6561
 3912SOL    HW315421   4.691   3.609   3.499 -0.3983  0.6971  0.2874
 3912SOL    MW415422   4.655   3.530   3.502 -0.1229 -0.0533 -0.7451
 3913SOL     OW15423   0.793   3.044   3.639 -0.2698 -0.1905 -0.2411
 3913SOL    HW215424   0.815   3.028   3.731  1.8661 -0.8442 -0.7987
 3913SOL    HW315425   0.817   3.136   3.625  1.2601 -0.6107 -0.5786
 3913SOL    MW415426   0.799   3.054   3.649  0.4534 -0.2612 -0.0355
 3914SOL     OW15427   2.167   1.918   6.396 -0.1703 -0.4721  0.2665
 3914SOL    HW215428   2.077   1.913   6.365  0.2095  0.8856 -1.1658
 3914SOL    HW315429   2.159   1.934   6.490 -1.4074 -0.4851  0.1763
 3914SOL    MW415430   2.154   1.919   6.404 -0.0063  0.0301 -0.3680
 3915SOL     OW15431   4.309   5.729   1.960 -0.3139  0.0210 -0.5421
 3915SOL    HW215432   4.355   5.665   2.014  0.5937  0.6080 -0.5961
 3915SOL    HW315433   4.247   5.677   1.909 -0.4847 -0.6543  0.3351
 3915SOL    MW415434   4.307   5.714   1.960 -0.7104 -0.3168  0.3867
 3916SOL     OW15435   1.790   2.588   3.968  0.0749 -0.3812 -0.4636
 3916SOL    HW215436   1.850   2.651   4.009 -0.8311  0.8875 -1.0102
 3916SOL    HW315437   1.835   2.504   3.975  1.8142  0.4882 -0.6503
 3916SOL    MW415438   1.804   2.586   3.975  0.2544  0.0835 -0.1540
 3917SOL     OW15439   4.215   5.111   1.947  0.2413  0.3512 -0.1861
 3917SOL    HW215440   4.170   5.028   1.960  0.5399  0.3368  0.9158
 3917SOL    HW315441   4.289   5.091   1.890 -0.8764  0.2941 -1.6720
 3917SOL    MW415442   4.219   5.098   1.941  0.2641 -0.4074 -0.0732
 3918SOL     OW15443   6.037   4.264   1.099  0.6870  0.1665 -0.2834
 3918SOL    HW215444   6.007   4.174   1.113  0.1405  0.4729  0.6325
 3918SOL    HW315445   6.110   4.276   1.160  0.6441  0.3923 -0.2728
 3918SOL    MW415446   6.042   4.254   1.109  0.7042 -0.0901 -0.1179
 3919SOL     OW15447   1.191   4.535   6.048  0.0281 -0.0286  0.4286
 3919SOL    HW215448   1.252   4.603   6.076  0.4303 -0.9662  1.9328
 3919SOL    HW315449   1.120   4.538   6.112  1.6559 -3.1759  2.6260
 3919SOL    MW415450   1.189   4.544   6.060 -0.3265 -0.0720  0.2744
 3920SOL     OW15451   5.763   2.966   5.506 -0.1823 -0.0557  0.2433
 3920SOL    HW215452   5.852   2.959   5.472  0.3121 -0.9163  1.6242
 3920SOL    HW315453   5.726   3.043   5.462  1.5948  0.9448  0.4268
 3920SOL    MW415454   5.770   2.975   5.496 -0.5439  0.4308  0.6452
 3921SOL     OW15455   4.815   1.465   3.035 -0.1999  0.6253 -0.2297
 3921SOL    HW215456   4.768   1.539   3.072  0.4006  0.3509  1.1670
 3921SOL    HW315457   4.817   1.400   3.106  2.1327  0.5705 -0.2777
 3921SOL    MW415458   4.809   1.466   3.049 -0.3533 -0.4118  0.0869
 3922SOL     OW15459   2.765   5.721   4.643 -0.2613 -0.1605 -0.1888
 3922SOL    HW215460   2.712   5.755   4.715  0.0211 -1.4244  0.6547
 3922SOL    HW315461   2.856   5.733   4.672 -0.0677  1.0963 -1.2004
 3922SOL    MW415462   2.770   5.727   4.656 -0.7872 -0.2835  0.1630
 3923SOL     OW15463   3.424   3.919   4.822 -0.4123 -0.1549 -0.1905
 3923SOL    HW215464   3.348   3.864   4.808 -1.2310  0.8464  0.1899
 3923SOL    HW315465   3.437   3.963   4.738  0.2138 -0.8713 -0.4804
 3923SOL    MW415466   3.416   3.918   4.809 -0.0522 -0.1316 -0.6209
 3924SOL     OW15467   4.434   5.626   2.697  0.2702 -0.2635 -0.4611
 3924SOL    HW215468   4.422   5.531   2.697  1.5479 -0.4674  1.3230
 3924SOL    HW315469   4.513   5.640   2.645  0.9196 -0.3355  0.4836
 3924SOL    MW415470   4.443   5.615   2.690 -0.1149 -0.0198  0.0285
 3925SOL     OW15471   4.405   1.364   1.199  0.5280  0.1707 -0.0855
 3925SOL    HW215472   4.311   1.379   1.201  0.6134  0.7103  1.8703
 3925SOL    HW315473   4.436   1.421   1.128 -0.4262  1.3824  0.4220
 3925SOL    MW415474   4.397   1.374   1.190  0.5728 -0.1833  0.1528
 3926SOL     OW15475   4.209   1.737   2.267 -0.0793 -0.4278 -0.1479
 3926SOL    HW215476   4.160   1.782   2.336 -0.2097  1.0248 -1.1199
 3926SOL    HW315477   4.156   1.660   2.247 -1.1151  0.2178 -0.0154
 3926SOL    MW415478   4.195   1.733   2.273 -0.0398  0.1136 -0.1530
 3927SOL     OW15479   6.125   0.167   6.328 -0.2483 -0.8076  0.4411
 3927SOL    HW215480   6.197   0.211   6.374 -0.9711  0.7301  0.1706
 3927SOL    HW315481   6.070   0.130   6.397  0.8970 -2.2209  0.6441
 3927SOL    MW415482   6.127   0.168   6.343  0.2764 -0.1235 -0.5172
 3928SOL     OW15483   3.441   6.096   2.315 -0.2047  0.0088 -0.1012
 3928SOL    HW215484   3.471   6.159   2.249 -0.2788  2.1361  1.7858
 3928SOL    HW315485   3.516   6.038   2.328 -0.0302 -0.1627 -1.6787
 3928SOL    MW415486   3.455   6.097   2.308  0.3097  0.4805  0.3259
 3929SOL     OW15487   3.719   0.517   3.561  0.0394 -0.2971 -0.5041
 3929SOL    HW215488   3.674   0.456   3.502  0.7809  1.6557 -3.2738
 3929SOL    HW315489   3.811   0.491   3.557  0.0693 -0.2800 -0.0097
 3929SOL    MW415490   3.725   0.505   3.553 -0.0280 -0.2716 -0.0829
 3930SOL     OW15491   2.958   3.634   0.581  0.2470  0.0312  0.0138
 3930SOL    HW215492   3.017   3.679   0.641  1.0953 -0.1188 -0.6937
 3930SOL    HW315493   2.947   3.547   0.620  0.4529  0.0732  0.1692
 3930SOL    MW415494   2.964   3.628   0.594  0.1191 -0.2662  0.4674
 3931SOL     OW15495   4.232   2.081   4.766  0.0392 -0.0519 -0.3697
 3931SOL    HW215496   4.227   2.160   4.712 -0.8703 -0.8521 -1.5184
 3931SOL    HW315497   4.298   2.027   4.724  0.8061  0.1718  0.5340
 3931SOL    MW415498   4.240   2.084   4.753 -0.2945  0.6938  0.5256
 3932SOL     OW15499   4.994   6.215   5.874  0.7329 -0.2899  0.0041
 3932SOL    HW215500   4.931   6.194   5.942  1.0161 -1.4464 -0.0815
 3932SOL    HW315501   5.011   6.133   5.829  1.5077  0.2069 -0.6536
 3932SOL    MW415502   4.988   6.202   5.877  0.0081 -0.5818  0.3836
 3933SOL     OW15503   1.293   1.330   0.384 -0.3598  0.7507 -0.9012
 3933SOL    HW215504   1.349   1.390   0.334  1.0686  0.5323  0.3838
 3933SOL    HW315505   1.298   1.361   0.474  0.0672 -1.0363 -0.2760
 3933SOL    MW415506   1.301   1.342   0.389 -0.2884  0.0442  0.5174
 3934SOL     OW15507   5.825   3.710   0.498  0.1273  0.2331  0.4056
 3934SOL    HW215508   5.823   3.676   0.409 -1.1369 -0.8091  0.8032
 3934SOL    HW315509   5.866   3.640   0.549 -0.1503  0.3682  0.8140
 3934SOL    MW415510   5.830   3.696   0.493 -0.8877 -0.4936  0.2498
 3935SOL     OW15511   2.272   1.824   4.337  0.1012 -0.4802  0.1463
 3935SOL    HW215512   2.184   1.788   4.345 -0.0830  0.0333  0.5030
 3935SOL    HW315513   2.330   1.748   4.340 -0.3474 -0.8621 -0.5600
 3935SOL    MW415514   2.268   1.809   4.339  0.3061  0.0671 -0.1882
 3936SOL     OW15515   1.603   5.929   3.166  0.3756  0.0154 -0.1705
 3936SOL    HW215516   1.571   5.874   3.095 -0.4325  1.3751 -0.9211
 3936SOL    HW315517   1.695   5.907   3.175 -0.2596 -2.5844  0.6656
 3936SOL    MW415518   1.611   5.919   3.158 -0.0095 -0.1750  0.0721
 3937SOL     OW15519   6.004   0.751   1.729 -0.4816  0.6164  0.2950
 3937SOL    HW215520   5.975   0.840   1.746  0.2085  0.4933  2.2883
 3937SOL    HW315521   6.084   0.761   1.678 -1.0446  1.0692 -0.5348
 3937SOL    MW415522   6.010   0.764   1.724 -0.6447  0.8368  0.3911
 3938SOL     OW15523   3.424   5.117   4.896 -0.1620  0.2376  0.0786
 3938SOL    HW215524   3.486   5.140   4.828 -1.1607  0.5688 -0.7529
 3938SOL    HW315525   3.394   5.201   4.930 -1.4540  0.1498 -0.7640
 3938SOL    MW415526   3.428   5.131   4.892 -0.2615 -0.0693 -0.3018
 3939SOL     OW15527   4.555   3.440   2.050 -0.0381  0.0614  0.6948
 3939SOL    HW215528   4.517   3.440   1.961  1.0831  0.0574  0.2065
 3939SOL    HW315529   4.585   3.351   2.063  1.5743  0.5228  0.2905
 3939SOL    MW415530   4.554   3.429   2.040  0.8966 -0.1524  0.3370
 3940SOL     OW15531   1.983   2.105   5.820 -0.3719  0.1331 -0.4613
 3940SOL    HW215532   1.937   2.169   5.766  0.0829 -0.5766 -1.7245
 3940SOL    HW315533   2.066   2.147   5.841 -0.9647  0.8277  0.5960
 3940SOL    MW415534   1.988   2.119   5.816  0.0950 -0.1806  0.3473
 3941SOL     OW15535   0.857   1.460   6.299  0.0693 -0.1498  0.8244
 3941SOL    HW215536   0.772   1.420   6.316  0.0323 -0.2882  0.3369
 3941SOL    HW315537   0.836   1.545   6.260  0.1376 -0.8392 -0.7964
 3941SOL    MW415538   0.843   1.466   6.296 -0.3087 -0.1095 -0.1061
 3942SOL     OW15539   4.483   2.806   1.227  0.2852  0.1792 -0.1658
 3942SOL    HW215540   4.479   2.789   1.133 -2.8155 -0.4518 -0.0238
 3942SOL    HW315541   4.463   2.900   1.236 -0.9512 -0.0641 -0.1272
 3942SOL    MW415542   4.480   2.816   1.216 -0.0347  0.2689 -0.2176
 3943SOL     OW15543   3.570   0.483   1.902 -0.1960  0.3567  0.6796
 3943SOL    HW215544   3.547   0.415   1.966  0.4788 -0.6349 -0.1005
 3943SOL    HW315545   3.579   0.436   1.820  1.9047  1.1126  0.4251
 3943SOL    MW415546   3.568   0.468   1.900  0.1635  0.1708 -0.2756
 3944SOL     OW15547   1.504   6.201   2.825 -0.0603 -0.3900  0.5770
 3944SOL    HW215548   1.411   6.181   2.819  0.2709 -2.0888  0.6369
 3944SOL    HW315549   1.511   6.290   2.790 -1.7312 -0.1072  0.8698
 3944SOL    MW415550   1.493   6.210   2.819  0.5870 -0.0871  0.0242
 3945SOL     OW15551   5.259   3.908   4.873 -0.6130  0.0223 -0.1287
 3945SOL    HW215552   5.216   3.827   4.844 -1.8307  1.0421 -1.3143
 3945SOL    HW315553   5.299   3.943   4.794  1.4242 -0.2693  0.7218
 3945SOL    MW415554   5.259   3.902   4.859  0.1613  0.3303 -0.8151
 3946SOL     OW15555   2.914   6.208   6.227 -0.1520  0.1169 -0.2133
 3946SOL    HW215556   2.832   6.213   6.275  0.2905  2.7029  0.4146
 3946SOL    HW315557   2.933   6.114   6.221 -2.1304 -0.4353  1.3545
 3946SOL    MW415558   2.906   6.196   6.233  0.1305 -0.2099 -0.0109
 3947SOL     OW15559   4.286   0.482   1.973 -1.1077 -0.1440 -0.3722
 3947SOL    HW215560   4.281   0.569   2.014  0.0377  0.7541 -1.9895
 3947SOL    HW315561   4.380   0.468   1.960 -1.2917 -1.5734 -0.2647
 3947SOL    MW415562   4.298   0.492   1.976 -0.6682  0.4572 -0.6930
 3948SOL     OW15563   0.300   1.164   6.100  0.1651  0.5147 -0.1657
 3948SOL    HW215564   0.344   1.200   6.023  1.4486 -0.7255 -0.0396
 3948SOL    HW315565   0.281   1.073   6.077  0.7570  0.0678  1.0445
 3948SOL    MW415566   0.304   1.157   6.087 -0.1440  0.1952  0.3094
 3949SOL     OW15567   0.315   2.463   4.910  0.3851 -0.3557 -0.2528
 3949SOL    HW215568   0.319   2.368   4.904  0.5718 -0.3025 -0.9717
 3949SOL    HW315569   0.234   2.487   4.867  0.0208 -0.2279  0.4822
 3949SOL    MW415570   0.305   2.454   4.904 -0.6032  0.4727 -0.6402
 3950SOL     OW15571   5.666   0.400   5.883 -0.1826 -0.4832  0.3785
 3950SOL    HW215572   5.578   0.390   5.918 -0.8684 -0.3003 -1.2108
 3950SOL    HW315573   5.702   0.475   5.930 -1.6320  0.7285 -0.3468
 3950SOL    MW415574   5.659   0.409   5.893 -0.3697 -0.3018 -0.0612
 3951SOL     OW15575   2.830   3.303   1.610  0.6857  0.0567 -0.4060
 3951SOL    HW215576   2.775   3.285   1.534 -0.9878 -0.0804  0.7765
 3951SOL    HW315577   2.768   3.309   1.683  2.2218  0.3143  0.9256
 3951SOL    MW415578   2.814   3.301   1.609 -0.3268 -0.5236  0.8620
 3952SOL     OW15579   1.347   1.049   2.632 -0.0582  0.5692 -0.4168
 3952SOL    HW215580   1.272   1.108   2.626 -0.8070 -0.1214  1.3251
 3952SOL    HW315581   1.422   1.107   2.642 -0.6995  1.2819  0.5201
 3952SOL    MW415582   1.347   1.064   2.633 -0.0796 -0.0715 -0.3896
 3953SOL     OW15583   2.556   3.707   3.818  0.4825  0.4164 -0.7239
 3953SOL    HW215584   2.599   3.717   3.733  2.7612 -2.1160 -0.0416
 3953SOL    HW315585   2.617   3.748   3.880  0.0635  0.0857 -0.0831
 3953SOL    MW415586   2.570   3.714   3.815  0.0975  0.0758 -0.0805
 3954SOL     OW15587   2.704   2.201   1.386 -0.0523 -0.5016 -0.0586
 3954SOL    HW215588   2.647   2.247   1.324 -0.0736 -0.2531  0.1430
 3954SOL    HW315589   2.711   2.112   1.351  1.6446  0.1617 -1.5806
 3954SOL    MW415590   2.697   2.195   1.374  0.4209 -0.2410 -0.0956
 3955SOL     OW15591   5.785   2.153   4.137  0.3919  0.3038 -0.1346
 3955SOL    HW215592   5.706   2.150   4.082 -1.4666  0.2872  2.3471
 3955SOL    HW315593   5.816   2.063   4.139 -0.6756 -0.0773  0.3233
 3955SOL    MW415594   5.778   2.141   4.130 -0.1083  0.4506  0.3403
 3956SOL     OW15595   5.415   4.701   0.160  0.0015 -0.1827  0.2746
 3956SOL    HW215596   5.385   4.792   0.154 -1.6622 -0.5378  2.0097
 3956SOL    HW315597   5.389   4.673   0.248  0.8932 -2.2096 -0.0419
 3956SOL    MW415598   5.408   4.709   0.171 -0.3375  0.0754 -0.0883
 3957SOL     OW15599   0.812   5.652   1.917 -0.1829  0.1131 -0.1903
 3957SOL    HW215600   0.730   5.694   1.892  0.4475  1.5102  0.0356
 3957SOL    HW315601   0.787   5.561   1.936 -1.3486  0.0247 -1.9364
 3957SOL    MW415602   0.798   5.645   1.916 -0.6597 -0.0967  0.1241
 3958SOL     OW15603   3.950   0.747   2.008  0.0208 -0.1861 -0.0973
 3958SOL    HW215604   3.883   0.785   2.065 -0.1628  0.3034 -0.6313
 3958SOL    HW315605   3.904   0.680   1.957 -0.9414  2.3996 -2.9107
 3958SOL    MW415606   3.935   0.743   2.009 -0.0166 -0.2558  0.5192
 3959SOL     OW15607   4.659   2.041   2.151 -0.2908  0.3658  0.2287
 3959SOL    HW215608   4.569   2.068   2.168 -1.4493 -0.6185 -3.3052
 3959SOL    HW315609   4.695   2.112   2.098  0.0610 -0.4059 -0.5890
 3959SOL    MW415610   4.652   2.054   2.146 -0.2584  0.0828  0.1067
 3960SOL     OW15611   3.828   5.364   2.942  0.1005 -0.2373  0.2521
 3960SOL    HW215612   3.865   5.320   2.865 -1.3452 -0.6943 -0.2077
 3960SOL    HW315613   3.901   5.367   3.005  0.8028 -1.4812 -0.4533
 3960SOL    MW415614   3.843   5.359   2.940  0.3314 -0.1253 -0.5523
 3961SOL     OW15615   3.356   0.028   5.218 -0.5785 -0.0434  0.1948
 3961SOL    HW215616   3.332   0.119   5.236 -0.5543 -0.0532  0.2809
 3961SOL    HW315617   3.322  -0.021   5.293 -0.7023 -0.1224  0.0862
 3961SOL    MW415618   3.349   0.033   5.231  0.0239 -0.1341  0.0916
 3962SOL     OW15619   5.106   4.821   6.361  0.2981 -0.2833 -0.0510
 3962SOL    HW215620   5.176   4.886   6.372  0.6537 -0.5944 -0.4419
 3962SOL    HW315621   5.151   4.742   6.333 -0.4151  0.2711 -3.1641
 3962SOL    MW415622   5.121   4.819   6.359  0.0119  0.1218  0.1511
 3963SOL     OW15623   0.254   6.099   2.849  0.0721  0.3823 -0.5001
 3963SOL    HW215624   0.188   6.093   2.779 -0.7062  1.4169  0.1283
 3963SOL    HW315625   0.242   6.018   2.899  0.3417 -0.1643 -1.2955
 3963SOL    MW415626   0.244   6.087   2.846  0.4516 -0.0552 -0.9967
 3964SOL     OW15627   0.833   5.040   0.782 -0.6322 -0.3621 -0.2043
 3964SOL    HW215628   0.877   4.975   0.836  0.1068  0.3009  0.0056
 3964SOL    HW315629   0.798   4.990   0.708  1.3108 -0.7908 -0.8962
 3964SOL    MW415630   0.834   5.025   0.779  0.3756 -0.0395  0.0831
 3965SOL     OW15631   4.428   1.542   5.588  0.2426  0.3319  0.4473
 3965SOL    HW215632   4.440   1.619   5.643  0.6213  0.1448  0.6344
 3965SOL    HW315633   4.483   1.557   5.512 -2.4131  1.8921 -1.3213
 3965SOL    MW415634   4.436   1.554   5.586 -0.3539  0.4922  0.5860
 3966SOL     OW15635   3.485   4.476   5.230  0.6386 -0.7150  0.4463
 3966SOL    HW215636   3.490   4.381   5.240  2.6187 -0.6659  0.4687
 3966SOL    HW315637   3.577   4.505   5.234  0.1681  1.0905 -0.5774
 3966SOL    MW415638   3.498   4.467   5.232 -0.5099  0.0701 -0.0522
 3967SOL     OW15639   3.993   2.417   3.414  0.2687  0.0218  0.1319
 3967SOL    HW215640   4.045   2.351   3.460 -1.8555 -0.2421  2.3496
 3967SOL    HW315641   3.920   2.436   3.473 -0.9770  1.9776 -1.8698
 3967SOL    MW415642   3.990   2.411   3.428 -0.4237  0.1228 -0.0003
 3968SOL     OW15643   3.461   0.920   3.465  0.0793 -0.5361  0.0194
 3968SOL    HW215644   3.483   0.889   3.377  0.5634  0.0529 -0.0732
 3968SOL    HW315645   3.525   0.879   3.523  0.5198  0.0239 -0.0626
 3968SOL    MW415646   3.472   0.911   3.461 -0.3273  0.0467  0.2693
 3969SOL     OW15647   4.237   1.322   0.345  0.1570 -0.2872  0.1094
 3969SOL    HW215648   4.196   1.401   0.310 -0.3991  0.0024  1.3567
 3969SOL    HW315649   4.225   1.256   0.276  1.7211  0.9922 -1.4784
 3969SOL    MW415650   4.230   1.323   0.331  0.3966 -0.2585 -0.0365
 3970SOL     OW15651   5.530   5.248   3.069  0.3593  0.3861  0.0486
 3970SOL    HW215652   5.590   5.217   3.137  1.1002 -0.9234 -1.1527
 3970SOL    HW315653   5.558   5.338   3.052  0.1681  0.7297  1.4390
 3970SOL    MW415654   5.542   5.256   3.076  0.4442  0.0005  0.1231
 3971SOL     OW15655   2.535   6.289   3.400 -0.0614  0.4450 -0.7750
 3971SOL    HW215656   2.547   6.195   3.407  1.8210  0.7610  4.3076
 3971SOL    HW315657   2.599   6.317   3.334  0.5261 -1.6296 -1.1361
 3971SOL    MW415658   2.545   6.281   3.392  0.8431  0.2818  0.5015
 3972SOL     OW15659   1.567   0.831   2.914 -0.2665 -0.5026 -0.0630
 3972SOL    HW215660   1.499   0.805   2.851  2.1661  0.1469 -3.2513
 3972SOL    HW315661   1.585   0.751   2.964 -1.8621 -1.2674 -0.6557
 3972SOL    MW415662   1.561   0.817   2.912  0.1938 -0.2362 -0.1224
 3973SOL     OW15663   1.132   1.516   5.958  0.3556 -0.1242  0.6667
 3973SOL    HW215664   1.188   1.593   5.968  0.5694 -0.2042  0.1422
 3973SOL    HW315665   1.122   1.481   6.047  1.8131 -0.5751  0.6900
 3973SOL    MW415666   1.138   1.521   5.971 -0.2905  0.1965  0.0602
 3974SOL     OW15667   1.551   1.705   5.119 -0.1282  0.7675 -0.0181
 3974SOL    HW215668   1.499   1.776   5.080  1.1424  0.8387 -1.6967
 3974SOL    HW315669   1.620   1.750   5.168 -1.3189  0.6668  1.8668
 3974SOL    MW415670   1.553   1.720   5.120  0.0317 -0.1577  0.2733
 3975SOL     OW15671   5.463   3.584   4.823  0.0185  0.1492 -0.4925
 3975SOL    HW215672   5.417   3.569   4.740  0.5144  0.0542 -0.7554
 3975SOL    HW315673   5.394   3.578   4.890 -0.5127  0.8949 -0.9437
 3975SOL    MW415674   5.447   3.582   4.821 -0.2030 -0.4626  0.4152
 3976SOL     OW15675   0.212   3.875   2.854 -0.0841  0.1330  0.2125
 3976SOL    HW215676   0.225   3.782   2.874  3.1576  0.6262  1.1435
 3976SOL    HW315677   0.266   3.890   2.777 -1.6196  1.0347 -0.7282
 3976SOL    MW415678   0.221   3.865   2.847  0.3151  0.1494  0.3417
 3977SOL     OW15679   3.125   3.986   5.580 -0.5362 -0.5385  0.0782
 3977SOL    HW215680   3.050   4.045   5.573 -0.7782 -0.7202  1.0689
 3977SOL    HW315681   3.091   3.900   5.553 -0.1272 -0.2208 -1.5920
 3977SOL    MW415682   3.111   3.982   5.575 -0.4497 -0.1916  0.2234
 3978SOL     OW15683   3.225   2.505   3.950 -0.1628  0.3642  0.4142
 3978SOL    HW215684   3.213   2.488   3.857 -1.0315 -1.2400  0.7928
 3978SOL    HW315685   3.294   2.444   3.977  2.6683  3.1706  0.1845
 3978SOL    MW415686   3.232   2.495   3.941  0.0377 -0.2827 -0.1983
 3979SOL     OW15687   1.291   0.579   4.934 -0.0318 -0.2473  0.2960
 3979SOL    HW215688   1.337   0.638   4.993 -0.7648  1.1453 -0.4742
 3979SOL    HW315689   1.277   0.630   4.854 -0.4946 -1.5372 -0.4905
 3979SOL    MW415690   1.295   0.594   4.931  0.7576  0.1847 -0.0918
 3980SOL     OW15691   2.061   0.124   1.586 -0.4445  0.1287 -0.4827
 3980SOL    HW215692   2.109   0.047   1.617  0.6338  0.5798 -0.9648
 3980SOL    HW315693   1.989   0.088   1.534  0.3154 -0.5662 -1.0902
 3980SOL    MW415694   2.058   0.109   1.583 -0.0391 -0.3346 -0.0071
 3981SOL     OW15695   5.135   3.757   3.299  0.0593 -0.9240 -0.2413
 3981SOL    HW215696   5.102   3.670   3.324 -0.9120 -0.2145  1.0777
 3981SOL    HW315697   5.056   3.811   3.288  0.6785  0.2790  0.9214
 3981SOL    MW415698   5.120   3.753   3.301 -0.2304 -0.0925 -0.4258
 3982SOL     OW15699   0.288   6.146   6.355 -0.3655 -0.3387  0.2798
 3982SOL    HW215700   0.288   6.198   6.275 -0.4825  0.4530  0.7903
 3982SOL    HW315701   0.277   6.209   6.426 -1.3930 -1.1411  0.8640
 3982SOL    MW415702   0.287   6.161   6.354  0.1955  1.4640  0.0568
 3983SOL     OW15703   4.847   1.725   0.023  0.1699  0.4874  0.0855
 3983SOL    HW215704   4.773   1.686  -0.022  1.0912 -0.1782 -0.8893
 3983SOL    HW315705   4.812   1.804   0.064 -1.3698 -0.5239  0.7912
 3983SOL    MW415706   4.833   1.731   0.022 -0.8506 -0.2712  0.1673
 3984SOL     OW15707   2.800   6.053   0.692  0.1290 -0.6230 -0.2570
 3984SOL    HW215708   2.711   6.020   0.677 -0.0225  0.0291 -0.8408
 3984SOL    HW315709   2.791   6.112   0.767  0.3428 -1.6192  0.5848
 3984SOL    MW415710   2.787   6.056   0.700 -0.1789 -0.5505 -0.2342
 3985SOL     OW15711   0.658   0.664   0.935  0.2452 -0.3093 -0.1185
 3985SOL    HW215712   0.672   0.606   0.860 -0.3628  1.2038 -1.4741
 3985SOL    HW315713   0.566   0.653   0.958  0.4692 -0.8884  0.5305
 3985SOL    MW415714   0.648   0.655   0.928  0.0315 -0.2720 -0.0812
 3986SOL     OW15715   3.834   3.055   2.629 -0.4023 -0.4224 -0.5287
 3986SOL    HW215716   3.924   3.041   2.599 -0.5263 -0.6309 -0.8105
 3986SOL    HW315717   3.784   3.071   2.548 -0.5656 -0.0129 -0.3507
 3986SOL    MW415718   3.839   3.056   2.614 -0.5636  0.2497  0.5455
 3987SOL     OW15719   5.251   1.111   4.400 -0.2956 -0.5479  0.0811
 3987SOL    HW215720   5.275   1.111   4.307 -0.4108 -1.2020  0.0444
 3987SOL    HW315721   5.329   1.142   4.446 -0.4742  0.5004 -0.2814
 3987SOL    MW415722   5.264   1.115   4.394  0.2186  0.6582  0.1487
 3988SOL     OW15723   5.438   5.652   0.710 -0.1236 -0.1940 -0.0709
 3988SOL    HW215724   5.391   5.689   0.635  0.1009  2.5651  1.0419
 3988SOL    HW315725   5.386   5.677   0.786  0.2902 -1.9080  0.8339
 3988SOL    MW415726   5.425   5.660   0.710 -0.2254 -0.2543 -0.2709
 3989SOL     OW15727   2.623   0.898   3.240  0.8373  0.2525 -0.4959
 3989SOL    HW215728   2.633   0.847   3.321 -3.3473  3.2544  2.3687
 3989SOL    HW315729   2.551   0.855   3.194 -0.2560  1.3871  0.0966
 3989SOL    MW415730   2.615   0.885   3.245 -0.3272 -0.0548  0.3488
 3990SOL     OW15731   2.834   2.180   6.176  0.8031  0.6682  0.2096
 3990SOL    HW215732   2.804   2.205   6.263 -1.1629 -1.1216  0.1133
 3990SOL    HW315733   2.787   2.237   6.116 -0.7908 -0.6085  0.1811
 3990SOL    MW415734   2.824   2.191   6.179  0.5346  0.4235  0.6077
 3991SOL     OW15735   4.756   0.108   2.509  0.1169  0.2352 -0.0497
 3991SOL    HW215736   4.684   0.069   2.558  0.6382 -2.4469 -1.2375
 3991SOL    HW315737   4.715   0.178   2.459 -1.2444  0.1544  0.8948
 3991SOL    MW415738   4.741   0.112   2.509  0.3406 -0.3162  0.2292
 3992SOL     OW15739   5.055   4.658   2.242  0.5368  0.1398  0.1917
 3992SOL    HW215740   5.103   4.588   2.285 -1.4457 -0.3687  1.7134
 3992SOL    HW315741   5.083   4.738   2.288 -0.2297 -0.1883  1.2797
 3992SOL    MW415742   5.065   4.660   2.254  0.0551 -0.2463  1.0641
 3993SOL     OW15743   3.454   3.777   5.693 -0.1056  0.5486  0.4290
 3993SOL    HW215744   3.524   3.718   5.723 -0.7797 -0.1364  0.6814
 3993SOL    HW315745   3.434   3.830   5.770 -1.6012 -0.9812  1.1548
 3993SOL    MW415746   3.461   3.776   5.707 -0.1186 -0.2414 -0.1380
 3994SOL     OW15747   2.726   2.248   0.976 -0.4518 -0.2037 -0.0085
 3994SOL    HW215748   2.738   2.315   1.043  3.0989 -0.2415 -0.4404
 3994SOL    HW315749   2.666   2.288   0.913 -0.7391  1.3903  1.2061
 3994SOL    MW415750   2.719   2.262   0.976 -0.3697  0.6256  0.2658
 3995SOL     OW15751   0.112   4.261   6.195  0.3884 -0.4142  0.1117
 3995SOL    HW215752   0.066   4.234   6.274  0.6797 -0.3291  0.3124
 3995SOL    HW315753   0.052   4.321   6.151  0.1944 -0.5238  0.2291
 3995SOL    MW415754   0.098   4.265   6.199 -0.2531 -0.8893  0.3877
 3996SOL     OW15755   4.671   1.954   6.256  0.0600  0.0273 -0.3745
 3996SOL    HW215756   4.705   1.968   6.168  0.1861  0.4793 -0.2584
 3996SOL    HW315757   4.698   2.032   6.305  1.3307 -0.8856  0.4602
 3996SOL    MW415758   4.679   1.966   6.251  0.2847  0.1014  0.1342
 3997SOL     OW15759   5.047   1.554   2.362 -0.2515  0.0769  0.2139
 3997SOL    HW215760   5.067   1.464   2.336 -1.1190  0.0726 -0.4823
 3997SOL    HW315761   5.124   1.604   2.334 -0.2534 -0.2734 -0.4508
 3997SOL    MW415762   5.060   1.549   2.355  0.2422  0.8401  0.3034
 3998SOL     OW15763   2.297   4.671   5.758 -0.2605  0.7858 -0.0089
 3998SOL    HW215764   2.355   4.611   5.712 -1.2676 -0.9351  0.8428
 3998SOL    HW315765   2.355   4.722   5.814  0.6106  0.4437 -0.5808
 3998SOL    MW415766   2.312   4.670   5.759 -0.2669 -0.6223 -0.0458
 3999SOL     OW15767   1.588   0.286   5.619  0.2773  0.8439 -0.4829
 3999SOL    HW215768   1.611   0.203   5.577 -0.9443  0.4043 -0.2927
 3999SOL    HW315769   1.559   0.262   5.706 -0.0745  1.4785 -0.4217
 3999SOL    MW415770   1.587   0.272   5.625  0.4087 -0.3464  0.5198
 4000SOL     OW15771   1.030   5.160   3.185 -0.5755  0.1208  0.4565
 4000SOL    HW215772   0.955   5.108   3.157 -0.1869 -0.1736 -0.0730
 4000SOL    HW315773   1.034   5.233   3.123 -0.7709  0.4552  0.8383
 4000SOL    MW415774   1.021   5.163   3.173 -0.4851 -0.1787 -0.5993
 4001SOL     OW15775   3.974   5.032   1.217  0.3945 -0.1588  0.6060
 4001SOL    HW215776   4.015   4.945   1.216 -0.5339 -0.6103  0.4443
 4001SOL    HW315777   3.896   5.020   1.271 -0.1613  0.3704 -0.0616
 4001SOL    MW415778   3.969   5.019   1.224 -0.1971 -0.2780 -0.0356
 4002SOL     OW15779   5.270   5.241   1.368 -0.3977 -0.0144  0.2363
 4002SOL    HW215780   5.267   5.173   1.301  1.9541 -1.5000  1.5092
 4002SOL    HW315781   5.347   5.294   1.345 -0.7932  0.7405  0.6126
 4002SOL    MW415782   5.280   5.239   1.356 -0.2416  0.5837  0.5421
 4003SOL     OW15783   4.623   5.499   6.076  0.3010 -0.3307  0.5033
 4003SOL    HW215784   4.615   5.522   6.168  0.3772  1.1915  0.1637
 4003SOL    HW315785   4.717   5.506   6.057  0.3432 -1.0909  0.4209
 4003SOL    MW415786   4.635   5.503   6.085 -0.3663  0.1392 -0.2674
 4004SOL     OW15787   1.473   4.683   4.882  0.4182  0.3277 -0.0058
 4004SOL    HW215788   1.444   4.632   4.806 -1.7589  3.1227 -1.2212
 4004SOL    HW315789   1.401   4.677   4.944  0.1156  1.8328 -0.1754
 4004SOL    MW415790   1.460   4.675   4.880 -0.2633 -0.1802  0.6518
 4005SOL     OW15791   3.505   1.859   1.546 -0.1904  0.8694  1.0797
 4005SOL    HW215792   3.439   1.790   1.553  1.7620 -1.2371 -0.0304
 4005SOL    HW315793   3.488   1.900   1.461 -0.1929  0.4504  0.8758
 4005SOL    MW415794   3.494   1.856   1.536  0.0529  0.5816 -0.1245
 4006SOL     OW15795   5.767   1.623   6.013 -0.5090  0.3326  0.0242
 4006SOL    HW215796   5.809   1.543   6.044  1.0193  1.2125  0.3239
 4006SOL    HW315797   5.684   1.626   6.060  0.1523 -0.2513  1.2795
 4006SOL    MW415798   5.762   1.613   6.023  0.4651 -1.0738 -0.4302
 4007SOL     OW15799   4.424   2.064   5.742  0.4222  0.0459  0.0946
 4007SOL    HW215800   4.517   2.073   5.724  0.7433  0.5472  1.8379
 4007SOL    HW315801   4.419   2.012   5.822 -0.7264  1.1276  0.7683
 4007SOL    MW415802   4.435   2.059   5.750  0.1334 -0.4728  0.2520
 4008SOL     OW15803   5.328   2.438   4.711 -0.3926  0.3936  0.0665
 4008SOL    HW215804   5.262   2.502   4.736 -1.6147 -1.2310  1.2568
 4008SOL    HW315805   5.309   2.361   4.766  0.8799 -1.0571 -1.4016
 4008SOL    MW415806   5.317   2.436   4.722  0.2832  0.0085  0.1460
 4009SOL     OW15807   1.272   0.408   1.910 -0.2329  0.5349  0.0410
 4009SOL    HW215808   1.255   0.324   1.953 -0.7242  0.0789 -1.0050
 4009SOL    HW315809   1.367   0.412   1.902 -0.2535 -0.7577 -1.4472
 4009SOL    MW415810   1.282   0.397   1.915 -0.6995 -0.4089  0.0235
 4010SOL     OW15811   5.206   6.237   3.437  0.3886  0.1359  0.2677
 4010SOL    HW215812   5.227   6.253   3.529 -0.4424 -0.7405  0.6217
 4010SOL    HW315813   5.283   6.190   3.403  0.2798 -0.4274  0.7834
 4010SOL    MW415814   5.219   6.233   3.445  0.3832 -0.3501 -0.1480
 4011SOL     OW15815   4.077   1.864   5.080  0.1844 -0.7134  0.4871
 4011SOL    HW215816   4.021   1.877   5.003  1.1316  1.6213  0.0995
 4011SOL    HW315817   4.095   1.953   5.112  2.8013 -1.3989  1.2084
 4011SOL    MW415818   4.072   1.878   5.074  0.2191  0.2555  0.1105
 4012SOL     OW15819   4.225   2.002   3.267  0.4613 -0.0625 -0.2134
 4012SOL    HW215820   4.227   1.907   3.282 -0.3859 -0.1336 -0.5055
 4012SOL    HW315821   4.158   2.034   3.327 -1.3932 -0.0621 -2.1993
 4012SOL    MW415822   4.217   1.993   3.277 -0.5052  0.3323  0.2699
 4013SOL     OW15823   3.709   1.491   1.985  0.6961 -0.0426  0.1200
 4013SOL    HW215824   3.747   1.576   1.963  1.9850 -0.4399  0.6836
 4013SOL    HW315825   3.723   1.482   2.080  0.6825 -0.9157  0.0495
 4013SOL    MW415826   3.716   1.501   1.995 -0.3520 -0.0109  0.2871
 4014SOL     OW15827   2.019   4.991   6.263 -0.1572  0.0061  0.3689
 4014SOL    HW215828   1.957   5.020   6.196  0.6556 -1.5845 -1.1431
 4014SOL    HW315829   2.015   5.060   6.330 -1.6508  1.2141 -0.8727
 4014SOL    MW415830   2.010   5.004   6.263  0.6010  0.0234 -0.3038
 4015SOL     OW15831   2.183   0.871   1.288  0.6503 -0.1950 -0.1095
 4015SOL    HW215832   2.263   0.852   1.337  0.1162 -1.0408  0.4379
 4015SOL    HW315833   2.117   0.888   1.355  0.1589 -0.3567 -0.5498
 4015SOL    MW415834   2.185   0.871   1.303 -0.0292 -0.2695  0.4493
 4016SOL     OW15835   5.344   2.113   4.273  0.3683 -0.1166  0.4087
 4016SOL    HW215836   5.328   2.027   4.235 -1.0679  0.4035 -0.2433
 4016SOL    HW315837   5.289   2.115   4.351 -1.5719  1.0636 -0.9039
 4016SOL    MW415838   5.335   2.102   4.278 -0.2603 -0.2936 -0.1511
 4017SOL     OW15839   2.867   5.907   5.025  0.1272 -0.2810  0.1422
 4017SOL    HW215840   2.777   5.914   5.058  0.4797  1.5045  0.8483
 4017SOL    HW315841   2.881   5.987   4.976  0.1042 -2.2540 -3.3768
 4017SOL    MW415842   2.857   5.919   5.023 -0.0853 -0.4245 -0.3052
 4018SOL     OW15843   3.040   3.239   1.867 -0.3983 -0.2762 -0.2118
 4018SOL    HW215844   2.981   3.208   1.936 -1.6695  0.9037 -0.7282
 4018SOL    HW315845   2.992   3.222   1.786  0.4151 -0.2167 -0.7098
 4018SOL    MW415846   3.026   3.233   1.866  0.0901 -0.5056 -0.0470
 4019SOL     OW15847   4.975   3.670   1.048  0.2000 -0.1185  0.0822
 4019SOL    HW215848   5.046   3.645   0.989 -0.9656 -2.7007 -0.3757
 4019SOL    HW315849   4.940   3.751   1.011  2.3429  0.7895 -0.1219
 4019SOL    MW415850   4.980   3.677   1.035 -0.4717  0.1024 -0.3467
 4020SOL     OW15851   2.628   2.867   2.751 -0.0638 -0.6725  0.1498
 4020SOL    HW215852   2.656   2.799   2.689 -0.0673 -1.0819  0.5851
 4020SOL    HW315853   2.702   2.875   2.812  0.0410 -0.0985 -0.0506
 4020SOL    MW415854   2.642   2.859   2.751  0.0774 -0.6743  0.4204
 4021SOL     OW15855   3.645   3.259   5.162  0.1160 -0.0020  0.2153
 4021SOL    HW215856   3.717   3.257   5.225 -0.4552  0.5195  0.9079
 4021SOL    HW315857   3.682   3.301   5.085  0.0978  1.9952  1.2125
 4021SOL    MW415858   3.659   3.264   5.161 -0.3212  0.5004  0.8582
 4022SOL     OW15859   2.284   3.467   5.768  0.2243 -0.2404  0.4286
 4022SOL    HW215860   2.212   3.406   5.755 -0.2699  0.2516  0.8475
 4022SOL    HW315861   2.272   3.501   5.857 -0.2617  1.4518 -0.2557
 4022SOL    MW415862   2.273   3.463   5.778  0.0932 -0.2251  0.5391
 4023SOL     OW15863   2.348   5.853   6.098 -0.0687  0.0330 -0.4788
 4023SOL    HW215864   2.436   5.889   6.107 -0.2606  0.3134  0.3448
 4023SOL    HW315865   2.295   5.927   6.067 -0.2858  0.2458  0.3699
 4023SOL    MW415866   2.353   5.868   6.095 -0.7090  0.2710  0.2217
 4024SOL     OW15867   3.518   0.417   5.644  0.0872  0.7432  0.3467
 4024SOL    HW215868   3.561   0.336   5.619 -0.8767  0.4548 -0.4375
 4024SOL    HW315869   3.587   0.484   5.640  0.3579  0.3976 -1.3975
 4024SOL    MW415870   3.533   0.415   5.640  0.2528  0.2009 -0.6065
 4025SOL     OW15871   0.065   4.693   3.454 -0.3155 -0.1991  0.0127
 4025SOL    HW215872   0.033   4.627   3.515  1.4584 -0.4511  0.7460
 4025SOL    HW315873   0.078   4.771   3.507  0.7999 -0.2861 -0.0950
 4025SOL    MW415874   0.063   4.694   3.469 -0.3664 -0.2605  0.4954
 4026SOL     OW15875   5.302   1.401   3.734 -0.5196 -0.2572  0.5427
 4026SOL    HW215876   5.362   1.399   3.660 -1.6313 -0.3203 -0.3858
 4026SOL    HW315877   5.347   1.452   3.800  1.3314 -1.8131  0.5742
 4026SOL    MW415878   5.316   1.407   3.733  0.1336 -0.1944 -0.1612
 4027SOL     OW15879   5.123   3.323   3.602  0.0096 -0.3076 -0.1009
 4027SOL    HW215880   5.045   3.351   3.650  0.2766  1.0984 -0.4525
 4027SOL    HW315881   5.116   3.227   3.599 -2.5303 -0.1896 -1.4575
 4027SOL    MW415882   5.112   3.314   3.608 -0.2192 -0.2079  0.6291
 4028SOL     OW15883   0.665   4.648   3.303  0.1838  0.1410 -0.2055
 4028SOL    HW215884   0.753   4.681   3.283  0.1028 -0.1410 -1.0441
 4028SOL    HW315885   0.633   4.614   3.220 -0.1908 -1.0105  0.3951
 4028SOL    MW415886   0.673   4.648   3.289  0.0695  0.5147  0.1737
 4029SOL     OW15887   1.480   5.096   1.558 -0.0231 -0.0379 -0.1043
 4029SOL    HW215888   1.497   5.022   1.616 -0.1174  0.4668  0.5862
 4029SOL    HW315889   1.553   5.096   1.496  0.8612  0.2625  0.9085
 4029SOL    MW415890   1.492   5.087   1.557  0.3363  0.3590  0.3282
 4030SOL     OW15891   5.983   4.630   0.677 -0.0982  0.5952  0.5416
 4030SOL    HW215892   5.933   4.664   0.751  0.0506  0.3953  0.7376
 4030SOL    HW315893   6.059   4.587   0.717 -0.0350  0.4541  0.2753
 4030SOL    MW415894   5.987   4.629   0.692 -0.4271  0.4168 -0.1778
 4031SOL     OW15895   1.015   6.148   5.478  0.1195  0.0148  0.7295
 4031SOL    HW215896   0.991   6.240   5.464  0.3698  0.1283  1.0268
 4031SOL    HW315897   0.995   6.132   5.570  2.0481  0.3968  1.2644
 4031SOL    MW415898   1.009   6.158   5.488  0.1034 -0.0456  0.1095
 4032SOL     OW15899   2.496   1.725   1.434  0.0323 -0.3294 -0.3465
 4032SOL    HW215900   2.542   1.661   1.489  0.0922 -0.2701 -0.3281
 4032SOL    HW315901   2.471   1.675   1.356  0.6038 -0.2263 -0.5983
 4032SOL    MW415902   2.499   1.710   1.431 -0.2993  0.0493  0.3212
 4033SOL     OW15903   6.062   3.050   3.815  0.1328  0.1845 -0.1120
 4033SOL    HW215904   6.066   2.983   3.883  0.9259 -2.1453 -2.2737
 4033SOL    HW315905   5.970   3.049   3.786 -0.3747  1.6944  1.3281
 4033SOL    MW415906   6.050   3.041   3.820  1.0731  0.4361  0.9481
 4034SOL     OW15907   0.933   1.487   1.575 -0.2051  0.4537 -0.4612
 4034SOL    HW215908   0.862   1.501   1.638 -0.1327  0.2168 -0.3245
 4034SOL    HW315909   0.896   1.426   1.511 -0.2353  0.5929 -0.5782
 4034SOL    MW415910   0.919   1.481   1.574  0.4476  0.2330  0.5180
 4035SOL     OW15911   5.004   3.344   5.433  0.1661  0.3180  0.8032
 4035SOL    HW215912   4.971   3.289   5.362 -1.0485 -1.8846  2.9494
 4035SOL    HW315913   4.963   3.429   5.418 -1.3869 -0.5606 -0.2275
 4035SOL    MW415914   4.994   3.348   5.421  0.2396 -0.3913  0.4970
 4036SOL     OW15915   0.845   5.968   4.713 -0.3428 -0.0507 -0.6027
 4036SOL    HW215916   0.787   5.970   4.790 -0.2458 -0.7029 -0.5080
 4036SOL    HW315917   0.794   6.012   4.644 -1.2724 -1.2763 -0.7340
 4036SOL    MW415918   0.830   5.974   4.714 -0.4880  0.3859  0.3089
 4037SOL     OW15919   1.495   2.190   3.898 -0.4563  1.1470 -0.1410
 4037SOL    HW215920   1.451   2.106   3.898  0.3169  0.7303  0.4192
 4037SOL    HW315921   1.585   2.170   3.925 -0.2687  2.1504  0.0179
 4037SOL    MW415922   1.501   2.176   3.901  0.4366 -0.1344  0.5177
 4038SOL     OW15923   5.466   4.962   2.525 -0.0490 -0.3465 -0.1085
 4038SOL    HW215924   5.428   5.044   2.556  0.0859 -0.9074  1.7119
 4038SOL    HW315925   5.475   4.909   2.605 -0.8171 -2.4221 -1.3182
 4038SOL    MW415926   5.462   4.966   2.540  0.2527 -0.1737 -0.0144
 4039SOL     OW15927   2.445   1.436   2.801 -0.1204  0.1354 -0.0261
 4039SOL    HW215928   2.509   1.477   2.859 -0.4682 -0.2755  0.6653
 4039SOL    HW315929   2.488   1.357   2.769 -1.2339 -1.7467  2.7311
 4039SOL    MW415930   2.459   1.431   2.804  0.4059 -0.4803 -0.2347
 4040SOL     OW15931   4.389   1.081   1.543  0.2484 -0.3522  0.1644
 4040SOL    HW215932   4.402   1.048   1.632  2.0548 -0.4238 -0.0806
 4040SOL    HW315933   4.475   1.116   1.518  0.3578 -2.0305 -2.2193
 4040SOL    MW415934   4.402   1.081   1.551  0.1637  0.3891  0.4287
 4041SOL     OW15935   3.591   5.693   2.945 -0.0301  0.0859  0.4320
 4041SOL    HW215936   3.523   5.750   2.981 -0.3664  0.6766 -1.0887
 4041SOL    HW315937   3.579   5.609   2.991 -0.1507  0.9109  1.9829
 4041SOL    MW415938   3.581   5.689   2.956  0.6209  0.1657 -0.4764
 4042SOL     OW15939   0.067   1.366   1.224 -0.2068  0.3326 -0.1930
 4042SOL    HW215940   0.149   1.341   1.182  0.7908  1.8723  0.7368
 4042SOL    HW315941   0.004   1.299   1.195  1.5228 -1.3408 -0.3073
 4042SOL    MW415942   0.069   1.354   1.214  0.2289 -0.4399  0.0324
 4043SOL     OW15943   4.316   6.152   4.917  0.3350 -0.0097  0.4003
 4043SOL    HW215944   4.258   6.077   4.906 -2.4590  2.0178  0.1110
 4043SOL    HW315945   4.322   6.164   5.012 -0.6079  0.3494  0.4280
 4043SOL    MW415946   4.309   6.144   4.928  0.1788  0.0839 -0.3265
 4044SOL     OW15947   2.597   1.072   2.144 -0.3215 -0.2080 -0.0544
 4044SOL    HW215948   2.669   1.134   2.154 -0.1497 -0.4799  0.4589
 4044SOL    HW315949   2.591   1.057   2.050  1.6482 -1.7263  0.0017
 4044SOL    MW415950   2.606   1.078   2.133  0.3195  0.2842 -0.0923
 4045SOL     OW15951   2.805   5.204   1.430  0.1129  0.3846 -0.0125
 4045SOL    HW215952   2.881   5.161   1.392 -0.6610 -1.8670  0.7705
 4045SOL    HW315953   2.778   5.268   1.364  0.0055 -1.9497 -2.4078
 4045SOL    MW415954   2.811   5.206   1.417 -0.1258  0.8226 -0.1724
 4046SOL     OW15955   0.963   4.068   3.831  0.5109 -0.6205  0.0958
 4046SOL    HW215956   0.940   4.000   3.894  0.5728 -1.2063 -0.5039
 4046SOL    HW315957   0.879   4.100   3.798  0.3846  1.2102  2.0346
 4046SOL    MW415958   0.949   4.063   3.835  0.7524  0.1327 -0.2470
 4047SOL     OW15959   2.343   3.512   0.229 -0.3364 -0.4259  0.4318
 4047SOL    HW215960   2.290   3.480   0.302 -0.2377 -0.1897  0.6100
 4047SOL    HW315961   2.430   3.476   0.245 -0.1083  0.2951  0.8871
 4047SOL    MW415962   2.348   3.503   0.241  0.6468  0.2645  0.2103
 4048SOL     OW15963   4.857   0.355   0.639  0.2846  0.6784  0.4113
 4048SOL    HW215964   4.898   0.431   0.679  0.5452  0.2206  1.0292
 4048SOL    HW315965   4.763   0.374   0.641  0.2140  0.2903  2.0606
 4048SOL    MW415966   4.850   0.367   0.644 -0.5152 -0.3355  0.2391
 4049SOL     OW15967   0.439   4.523   2.630  0.7974 -0.6190  0.0950
 4049SOL    HW215968   0.476   4.444   2.591  0.1080 -0.2435 -1.3881
 4049SOL    HW315969   0.514   4.581   2.643  1.1215 -0.9959 -0.0676
 4049SOL    MW415970   0.454   4.520   2.627 -0.7318 -0.1373  0.2576
 4050SOL     OW15971   0.616   3.261   1.401 -0.4414  0.3263 -0.0838
 4050SOL    HW215972   0.576   3.309   1.473  1.7745  0.5821  1.0581
 4050SOL    HW315973   0.648   3.180   1.440 -0.1075 -0.0086 -1.0094
 4050SOL    MW415974   0.615   3.257   1.415  0.1398 -0.0087  0.3076
 4051SOL     OW15975   3.371   4.943   0.210 -0.0786  0.0037  0.3202
 4051SOL    HW215976   3.379   4.959   0.304  1.7202 -0.3780  0.2644
 4051SOL    HW315977   3.402   5.024   0.169 -0.2729 -0.0507  0.0619
 4051SOL    MW415978   3.376   4.956   0.217 -0.0425  0.2474 -0.6605
 4052SOL     OW15979   4.069   5.764   1.203 -0.5408  0.9270  0.0891
 4052SOL    HW215980   4.116   5.751   1.285 -0.6864  2.3649  0.4216
 4052SOL    HW315981   4.028   5.679   1.186  1.7895 -0.2546 -0.0144
 4052SOL    MW415982   4.070   5.751   1.212 -0.1946 -0.4818 -0.1507
 4053SOL     OW15983   3.109   2.519   5.063 -0.9732 -0.3291  0.5573
 4053SOL    HW215984   3.083   2.427   5.054  1.5198 -0.8921 -2.2147
 4053SOL    HW315985   3.179   2.518   5.128  1.6463 -1.1272 -2.0903
 4053SOL    MW415986   3.115   2.507   5.071 -0.2867  0.1409  0.2122
 4054SOL     OW15987   6.197   2.016   5.979 -0.1582 -0.4532 -0.2951
 4054SOL    HW215988   6.211   2.080   6.049 -1.9295 -2.4473  2.0628
 4054SOL    HW315989   6.280   1.969   5.973  0.5862  0.8799 -0.8418
 4054SOL    MW415990   6.210   2.018   5.987 -0.1031 -0.1628 -0.6620
 4055SOL     OW15991   4.972   0.260   1.782 -0.1251  0.1713 -0.1146
 4055SOL    HW215992   4.914   0.191   1.813  0.2285 -0.6760 -1.2709
 4055SOL    HW315993   5.001   0.230   1.696 -0.1782  1.9034 -0.7708
 4055SOL    MW415994   4.968   0.247   1.775  0.1984  0.1718 -0.6934
 4056SOL     OW15995   2.574   4.241   1.574  0.1187  0.0018 -0.0825
 4056SOL    HW215996   2.515   4.312   1.598 -0.8354 -0.5393 -0.7361
 4056SOL    HW315997   2.578   4.245   1.478  0.8162 -0.2252 -0.0664
 4056SOL    MW415998   2.566   4.251   1.564 -0.1375  0.5542  0.3799
 4057SOL     OW15999   4.415   3.484   0.082 -0.1469 -0.1571  0.2878
 4057SOL    HW216000   4.508   3.477   0.102 -0.3268 -0.0401  1.2304
 4057SOL    HW316001   4.378   3.401   0.111 -0.2081 -0.5757 -0.9334
 4057SOL    MW416002   4.422   3.472   0.089 -0.2031 -0.1803  0.4751
 4058SOL     OW16003   5.483   0.991   5.289  0.5651  0.1148 -0.3787
 4058SOL    HW216004   5.446   0.979   5.201 -0.2484 -1.5062  0.1564
 4058SOL    HW316005   5.497   0.903   5.322  1.6980  0.6947  0.8133
 4058SOL    MW416006   5.480   0.978   5.281 -0.5399  0.4249  0.1638
 4059SOL     OW16007   0.115   4.027   1.622  0.4931  0.2503  0.2325
 4059SOL    HW216008   0.146   4.067   1.703 -0.0701  2.1980 -0.4658
 4059SOL    HW316009   0.094   4.101   1.565 -1.7962 -1.0192 -0.6960
 4059SOL    MW416010   0.116   4.042   1.625 -0.4043 -0.3405 -0.3718
 4060SOL     OW16011   2.994   5.829   2.408 -0.5689 -0.0942  0.2503
 4060SOL    HW216012   3.050   5.857   2.336 -2.4201 -0.0839 -1.2557
 4060SOL    HW316013   3.046   5.763   2.455  1.2829  1.0728 -0.0931
 4060SOL    MW416014   3.008   5.824   2.405  0.5016  0.1557 -0.0216
 4061SOL     OW16015   1.431   2.087   4.484  0.0426 -0.5142  0.4477
 4061SOL    HW216016   1.446   2.041   4.567 -0.1864 -0.2535  0.6370
 4061SOL    HW316017   1.512   2.075   4.435 -0.3178 -1.8383  0.1394
 4061SOL    MW416018   1.444   2.079   4.489  0.6421 -0.3012 -0.6275
 4062SOL     OW16019   6.264   2.636   4.939  0.2704  0.0681 -0.2250
 4062SOL    HW216020   6.220   2.718   4.919 -1.3460 -0.2568  1.7185
 4062SOL    HW316021   6.194   2.571   4.943  1.2996 -1.0637 -0.0328
 4062SOL    MW416022   6.249   2.638   4.937 -0.0298 -0.6322  0.0661
 4063SOL     OW16023   1.387   4.537   1.123 -0.2612 -0.3112 -0.2672
 4063SOL    HW216024   1.419   4.619   1.160 -1.2337  0.3415 -0.8686
 4063SOL    HW316025   1.360   4.486   1.200  0.1856 -0.0177  0.0932
 4063SOL    MW416026   1.388   4.541   1.138 -0.0609 -0.1751 -0.1470
 4064SOL     OW16027   4.668   0.310   4.792  0.1530  0.0219  0.0033
 4064SOL    HW216028   4.674   0.274   4.704  0.5295  0.5784 -0.1997
 4064SOL    HW316029   4.613   0.388   4.782 -0.1390 -0.1366  0.3334
 4064SOL    MW416030   4.661   0.316   4.779  0.4341  0.4627  0.3569
 4065SOL     OW16031   1.190   4.666   3.141  0.3713 -0.1297 -0.2378
 4065SOL    HW216032   1.193   4.761   3.132 -1.5884 -0.0680 -0.9639
 4065SOL    HW316033   1.115   4.640   3.087  1.9477 -2.2875 -1.5471
 4065SOL    MW416034   1.180   4.675   3.133  0.0500 -0.0201 -0.3466
 4066SOL     OW16035   4.973   6.019   1.816 -0.2443 -0.3235  0.0324
 4066SOL    HW216036   4.903   6.002   1.879 -1.4352  1.6337 -0.6693
 4066SOL    HW316037   5.053   5.992   1.861 -1.0704  0.6899  2.2798
 4066SOL    MW416038   4.974   6.013   1.830  0.4389  0.3720  0.1129
 4067SOL     OW16039   4.981   6.309   2.691 -0.2620  0.3608  0.3797
 4067SOL    HW216040   4.947   6.394   2.722  1.6916  1.2127  0.3135
 4067SOL    HW316041   4.990   6.320   2.597 -0.8918 -0.2752  0.2386
 4067SOL    MW416042   4.977   6.322   2.683 -0.3203 -0.0640 -0.1901
 4068SOL     OW16043   2.229   6.306   1.188 -0.0374 -0.0691  0.0272
 4068SOL    HW216044   2.183   6.390   1.183 -0.1048 -0.1575 -0.9083
 4068SOL    HW316045   2.322   6.330   1.183  0.0488  0.0857  1.6435
 4068SOL    MW416046   2.236   6.321   1.187  0.6698  0.3916  0.4654
 4069SOL     OW16047   2.314   6.301   4.882  0.5746 -0.9704  0.6939
 4069SOL    HW216048   2.367   6.347   4.817  0.3226  0.4735  1.4626
 4069SOL    HW316049   2.228   6.293   4.841  0.5375 -0.4632  0.6621
 4069SOL    MW416050   2.310   6.306   4.868 -0.4817  0.1669  0.3984
 4070SOL     OW16051   1.698   0.438   0.212  0.3217  0.4813  0.4787
 4070SOL    HW216052   1.604   0.426   0.227  0.5805 -0.9887  1.0777
 4070SOL    HW316053   1.707   0.435   0.116 -0.1878  0.2710  0.4304
 4070SOL    MW416054   1.686   0.436   0.201  0.0610 -0.5874  0.1912
 4071SOL     OW16055   2.760   1.223   5.718  0.0794  0.1860  0.1689
 4071SOL    HW216056   2.727   1.183   5.638 -1.1056 -0.9529  1.1793
 4071SOL    HW316057   2.720   1.172   5.789  0.7876  1.3917  1.4970
 4071SOL    MW416058   2.751   1.211   5.717  0.6431 -0.4254 -0.0646
 4072SOL     OW16059   4.879   0.556   4.325 -0.6336  0.1792  0.4098
 4072SOL    HW216060   4.821   0.556   4.401 -1.6462 -0.9541 -0.3310
 4072SOL    HW316061   4.868   0.469   4.286 -0.8735  1.0454 -1.5812
 4072SOL    MW416062   4.870   0.545   4.330 -0.2197 -0.1637 -0.1176
 4073SOL     OW16063   0.871   3.715   6.314 -0.1859  0.5864 -0.1354
 4073SOL    HW216064   0.896   3.723   6.222  0.3398 -0.8345 -0.1448
 4073SOL    HW316065   0.777   3.694   6.312  0.0132 -0.3149 -0.4024
 4073SOL    MW416066   0.862   3.713   6.302 -0.2041 -0.1369 -0.1894
 4074SOL     OW16067   4.485   2.890   2.439 -0.5958  0.1214 -0.2576
 4074SOL    HW216068   4.406   2.849   2.406  0.3353 -1.1980 -0.9361
 4074SOL    HW316069   4.532   2.919   2.360  0.2630 -0.3958  0.0495
 4074SOL    MW416070   4.481   2.889   2.424 -0.1550 -0.0929 -0.4340
 4075SOL     OW16071   0.578   2.921   2.235 -0.7129  0.1826  0.5081
 4075SOL    HW216072   0.525   2.965   2.170 -0.3122 -1.4564 -1.0045
 4075SOL    HW316073   0.666   2.958   2.224 -0.4968 -0.5570 -0.3838
 4075SOL    MW416074   0.583   2.931   2.225  0.7275  0.0094  0.1172
 4076SOL     OW16075   6.233   1.764   4.621 -0.3558 -0.2103  0.1738
 4076SOL    HW216076   6.217   1.801   4.708  1.5442 -1.2266  1.0148
 4076SOL    HW316077   6.291   1.826   4.579  0.7251 -0.9074  0.5980
 4076SOL    MW416078   6.238   1.777   4.627  0.1721  0.5481  0.3460
 4077SOL     OW16079   5.918   2.987   0.137  1.0703  0.1373 -0.3443
 4077SOL    HW216080   5.916   3.032   0.053  0.3238  1.5847  0.4174
 4077SOL    HW316081   6.012   2.973   0.154  1.1885 -3.0455 -2.8218
 4077SOL    MW416082   5.930   2.991   0.128  0.7338 -0.1706  0.5456
 4078SOL     OW16083   1.902   0.804   2.834 -0.4664 -0.9401 -0.2369
 4078SOL    HW216084   1.917   0.877   2.773 -0.1985 -0.4258  0.4309
 4078SOL    HW316085   1.952   0.827   2.912 -1.9300 -0.8784  0.7295
 4078SOL    MW416086   1.911   0.817   2.836 -0.3655 -0.2608  0.0157
 4079SOL     OW16087   0.774   0.777   6.306  0.5357 -0.3272 -0.3928
 4079SOL    HW216088   0.754   0.818   6.222 -0.1707 -1.6163 -0.8905
 4079SOL    HW316089   0.833   0.838   6.350  0.2212  0.7736 -1.4560
 4079SOL    MW416090   0.779   0.790   6.301  1.0248  0.2855  0.1363
 4080SOL     OW16091   0.497   3.837   0.041 -0.1632  0.2768 -0.4794
 4080SOL    HW216092   0.565   3.864   0.102  0.4275 -1.1825 -0.4528
 4080SOL    HW316093   0.512   3.890  -0.037  0.5052  0.5332 -0.1847
 4080SOL    MW416094   0.508   3.848   0.039 -0.5771 -0.3623  0.0737
 4081SOL     OW16095   5.893   4.258   4.099 -0.0964  0.4342  0.3935
 4081SOL    HW216096   5.910   4.351   4.113  1.0347  0.3316 -0.1864
 4081SOL    HW316097   5.952   4.214   4.160 -1.5689  0.0874  1.6226
 4081SOL    MW416098   5.903   4.264   4.109 -0.1519 -0.2768 -0.0553
 4082SOL     OW16099   5.558   3.933   5.291 -0.0819  0.0733  0.0794
 4082SOL    HW216100   5.549   3.949   5.197  0.0716  0.5132  0.1398
 4082SOL    HW316101   5.536   4.016   5.332 -0.8772 -0.3197  0.4729
 4082SOL    MW416102   5.553   3.946   5.284  0.0571  0.8328 -0.5426
 4083SOL     OW16103   0.208   1.486   4.372 -0.6940 -0.2976 -0.0892
 4083SOL    HW216104   0.221   1.487   4.277 -0.7895 -1.7233 -0.1399
 4083SOL    HW316105   0.257   1.410   4.402 -0.7100  0.1101  1.0054
 4083SOL    MW416106   0.216   1.476   4.363  0.0047 -0.3699  0.6078
 4084SOL     OW16107   5.902   3.793   1.445 -0.0469  0.1875 -0.0537
 4084SOL    HW216108   5.992   3.809   1.415  0.6799 -2.3803  0.5152
 4084SOL    HW316109   5.910   3.770   1.537 -1.0383 -1.6421 -0.3621
 4084SOL    MW416110   5.915   3.792   1.453 -0.4256 -0.1065  0.2744
 4085SOL     OW16111   5.339   1.996   2.689 -0.2593  0.5785  0.2810
 4085SOL    HW216112   5.262   1.979   2.635 -0.5649 -0.0300  0.8913
 4085SOL    HW316113   5.334   1.931   2.758 -0.3577  1.8765  1.5522
 4085SOL    MW416114   5.328   1.985   2.691 -0.2778 -0.1085  0.3365
 4086SOL     OW16115   0.168   1.896   5.461  0.3307  0.7442  0.2080
 4086SOL    HW216116   0.158   1.972   5.518  0.7065  1.7528 -1.0017
 4086SOL    HW316117   0.258   1.866   5.476  0.6447  1.4025 -0.2901
 4086SOL    MW416118   0.178   1.902   5.470  0.5222  0.0841 -0.1081
 4087SOL     OW16119   3.290   0.530   2.672  0.0363  0.1830  0.3235
 4087SOL    HW216120   3.328   0.475   2.741 -1.1030  1.0151  1.6896
 4087SOL    HW316121   3.212   0.568   2.713 -0.2626  1.3001 -1.2061
 4087SOL    MW416122   3.285   0.528   2.687 -0.3399  0.0985  0.4295
 4088SOL     OW16123   2.562   2.769   3.668  0.1474 -0.5418 -0.4661
 4088SOL    HW216124   2.494   2.706   3.691 -0.8050  0.4099 -0.5939
 4088SOL    HW316125   2.549   2.785   3.575  0.7815 -0.6106 -0.5713
 4088SOL    MW416126   2.551   2.763   3.659  0.2674  0.1482  0.0432
 4089SOL     OW16127   4.631   2.635   1.387  0.4471 -0.0493 -0.2791
 4089SOL    HW216128   4.589   2.686   1.318 -3.1536 -0.2821  1.4891
 4089SOL    HW316129   4.677   2.700   1.440 -1.3504  0.9920  0.1025
 4089SOL    MW416130   4.632   2.650   1.385 -0.4341 -0.1616 -0.6639
 4090SOL     OW16131   6.050   0.407   2.432 -0.2628 -0.0686 -0.4767
 4090SOL    HW216132   6.048   0.492   2.476 -0.3552 -0.3909  0.1575
 4090SOL    HW316133   6.120   0.415   2.368 -0.1094  0.4086 -0.2570
 4090SOL    MW416134   6.059   0.419   2.430  0.1986  0.1059 -0.1357
 4091SOL     OW16135   5.681   0.048   5.718  0.1086  0.1599 -0.2848
 4091SOL    HW216136   5.589   0.035   5.696 -0.2657  0.6640  0.8753
 4091SOL    HW316137   5.690   0.143   5.726  0.2254  0.0212  1.5730
 4091SOL    MW416138   5.670   0.059   5.716  0.6301  0.0745 -0.9645
 4092SOL     OW16139   4.802   4.332   0.675 -0.2718  0.5843 -0.1024
 4092SOL    HW216140   4.733   4.302   0.734 -0.8656 -1.6576 -1.8072
 4092SOL    HW316141   4.876   4.274   0.692  0.6630  1.9030  0.5340
 4092SOL    MW416142   4.803   4.320   0.685 -0.5353 -0.6371 -0.0967
 4093SOL     OW16143   5.290   0.486   4.575  0.0168 -0.1354 -0.0258
 4093SOL    HW216144   5.313   0.473   4.483 -0.3832  1.5279 -0.4001
 4093SOL    HW316145   5.344   0.560   4.603 -1.9509  1.3126  0.1838
 4093SOL    MW416146   5.300   0.494   4.566  0.0809 -0.2697  0.0340
 4094SOL     OW16147   5.619   6.176   4.588  0.1127 -0.1079 -0.2903
 4094SOL    HW216148   5.538   6.224   4.572  0.2324  0.6203  1.1604
 4094SOL    HW316149   5.590   6.091   4.621 -0.0640 -0.0102 -0.1913
 4094SOL    MW416150   5.604   6.171   4.590 -1.0580  0.1235  0.0514
 4095SOL     OW16151   3.974   4.741   1.476  0.4494  0.1268 -0.0113
 4095SOL    HW216152   3.934   4.659   1.503 -0.6612  0.0293 -1.8160
 4095SOL    HW316153   3.923   4.809   1.520 -0.3145 -0.0684 -0.5971
 4095SOL    MW416154   3.962   4.740   1.486 -0.2434 -0.0121 -0.0650
 4096SOL     OW16155   0.509   5.895   4.668  0.6096  0.6196 -0.4283
 4096SOL    HW216156   0.539   5.979   4.703  1.2932  0.7816 -1.3708
 4096SOL    HW316157   0.548   5.890   4.580 -0.4637 -0.1053 -0.8823
 4096SOL    MW416158   0.519   5.905   4.661 -0.4338 -0.0502 -0.0352
 4097SOL     OW16159   1.672   1.553   4.169 -0.2896 -0.1716  0.0358
 4097SOL    HW216160   1.671   1.639   4.211 -1.7085 -0.3418  0.4122
 4097SOL    HW316161   1.587   1.514   4.191  0.4334 -1.7941  0.1095
 4097SOL    MW416162   1.661   1.559   4.177  0.3956 -0.1597  0.4660
 4098SOL     OW16163   5.705   4.320   5.512 -0.4981  1.2206  0.6974
 4098SOL    HW216164   5.764   4.392   5.490 -0.8717  1.2102 -0.4046
 4098SOL    HW316165   5.731   4.294   5.601  1.2829  1.0926  0.1899
 4098SOL    MW416166   5.716   4.326   5.521 -0.0658 -0.2225  0.6499
 4099SOL     OW16167   3.218   3.099   0.831 -0.2048 -0.4362 -0.3536
 4099SOL    HW216168   3.248   3.181   0.791 -1.2946 -1.1939 -2.9289
 4099SOL    HW316169   3.288   3.036   0.812  0.7854 -0.1193  1.9092
 4099SOL    MW416170   3.231   3.102   0.823 -0.0656  0.2728 -0.1116
 4100SOL     OW16171   2.285   3.540   0.754 -0.4257 -0.1355  0.2444
 4100SOL    HW216172   2.297   3.635   0.761 -0.4547 -0.0271 -0.9525
 4100SOL    HW316173   2.223   3.529   0.682  1.7724 -1.1587 -1.6083
 4100SOL    MW416174   2.278   3.551   0.746  0.3100  0.0923  0.0736
 4101SOL     OW16175   5.188   4.590   5.824 -0.7670  0.2059 -1.0560
 4101SOL    HW216176   5.138   4.617   5.747 -2.8950  0.6637  0.4066
 4101SOL    HW316177   5.166   4.655   5.891  0.6732 -0.4334  0.1037
 4101SOL    MW416178   5.179   4.602   5.823  0.8215 -0.1848  0.5144
 4102SOL     OW16179   3.479   0.828   4.142 -0.0333  0.0082 -0.2469
 4102SOL    HW216180   3.443   0.845   4.229  0.6003  0.6960 -0.1026
 4102SOL    HW316181   3.572   0.810   4.159  0.1384  0.3653 -0.7995
 4102SOL    MW416182   3.487   0.828   4.156 -0.4481  0.0869  0.8171
 4103SOL     OW16183   5.619   5.144   3.315  0.2355 -0.2158 -0.0522
 4103SOL    HW216184   5.697   5.187   3.349  0.1586  0.6673 -0.9662
 4103SOL    HW316185   5.613   5.062   3.365  2.1138 -0.6130 -0.4214
 4103SOL    MW416186   5.628   5.139   3.326  0.5555  0.5615 -0.3732
 4104SOL     OW16187   5.313   4.233   2.183  0.2342  0.5742 -0.3366
 4104SOL    HW216188   5.372   4.252   2.109 -1.2758  0.8062 -1.5265
 4104SOL    HW316189   5.256   4.163   2.151 -2.6723  2.9386 -0.7182
 4104SOL    MW416190   5.314   4.226   2.169 -0.0258 -0.0774 -0.5030
 4105SOL     OW16191   1.825   3.099   4.347 -0.0839  0.2102 -0.3052
 4105SOL    HW216192   1.892   3.045   4.387 -0.1807 -0.4305 -0.9761
 4105SOL    HW316193   1.762   3.118   4.417  0.2190 -0.1186  0.0524
 4105SOL    MW416194   1.825   3.095   4.361  0.3000  0.1372  0.4241
 4106SOL     OW16195   0.094   0.341   0.549  0.1457  0.0054 -0.2372
 4106SOL    HW216196   0.038   0.291   0.490  0.2354 -1.3285  0.7739
 4106SOL    HW316197   0.157   0.277   0.582  0.7164  0.9510  0.5504
 4106SOL    MW416198   0.095   0.326   0.545 -0.2573 -0.6753 -0.6919
 4107SOL     OW16199   3.953   6.130   4.889 -0.3683 -0.2711  0.3842
 4107SOL    HW216200   3.940   6.044   4.850  1.1423  0.4404 -1.9115
 4107SOL    HW316201   3.866   6.156   4.919 -0.9488 -2.3402  0.6495
 4107SOL    MW416202   3.940   6.122   4.888  0.2957  0.7151 -0.5123
 4108SOL     OW16203   4.172   2.587   3.067 -0.5801  0.0403 -0.6408
 4108SOL    HW216204   4.235   2.532   3.113  0.7823 -0.2942 -2.7384
 4108SOL    HW316205   4.089   2.571   3.111  0.1487 -2.2175  0.0368
 4108SOL    MW416206   4.170   2.578   3.079  0.2519  0.5262 -0.5329
 4109SOL     OW16207   0.314   4.924   1.099  0.3470 -0.4186  0.7310
 4109SOL    HW216208   0.332   5.013   1.128 -0.9370  0.8970 -2.1043
 4109SOL    HW316209   0.382   4.905   1.034  0.3162 -1.3408  0.9450
 4109SOL    MW416210   0.326   4.933   1.094 -0.3798  0.4556  0.0599
 4110SOL     OW16211   2.901   4.519   5.054 -0.0973  0.0608  0.2156
 4110SOL    HW216212   2.847   4.499   5.131 -0.2720 -0.4413 -0.0306
 4110SOL    HW316213   2.980   4.468   5.066 -0.6440 -1.0127 -0.5317
 4110SOL    MW416214   2.904   4.510   5.066  0.6308  0.4513 -0.3774
 4111SOL     OW16215   3.875   6.000   3.294  0.3347 -0.0407  0.5421
 4111SOL    HW216216   3.954   6.040   3.256 -0.5494 -0.2428 -1.6793
 4111SOL    HW316217   3.845   5.940   3.226 -0.8391 -1.1766  2.0286
 4111SOL    MW416218   3.882   5.997   3.280 -0.8544 -0.0116  0.1323
 4112SOL     OW16219   3.507   5.793   3.620  0.2776 -0.1384 -0.0584
 4112SOL    HW216220   3.425   5.744   3.625 -0.3498  0.7484 -1.0322
 4112SOL    HW316221   3.526   5.797   3.526  0.3213  1.4156 -0.0104
 4112SOL    MW416222   3.499   5.787   3.608 -0.1495  0.0492 -0.2141
 4113SOL     OW16223   5.977   2.637   3.452 -0.1644 -0.4937  0.0600
 4113SOL    HW216224   6.014   2.703   3.510  1.7797 -0.8681 -0.6851
 4113SOL    HW316225   5.959   2.683   3.370  0.7193 -0.7642 -0.2938
 4113SOL    MW416226   5.979   2.652   3.449  0.0475 -0.0521  0.6182
 4114SOL     OW16227   6.309   0.031   0.358 -0.1823  0.0947  0.7404
 4114SOL    HW216228   6.358   0.004   0.435 -0.2137  2.0755  1.5268
 4114SOL    HW316229   6.341  -0.026   0.288  2.2408  0.3490  1.5335
 4114SOL    MW416230   6.320   0.020   0.359 -0.3634  0.3956  0.1174
 4115SOL     OW16231   6.257   1.748   6.299  0.3052  0.0019 -0.6819
 4115SOL    HW216232   6.217   1.671   6.341 -0.1670 -0.0112 -1.1378
 4115SOL    HW316233   6.266   1.722   6.207 -0.7916  0.8425 -1.0549
 4115SOL    MW416234   6.253   1.734   6.292 -0.4894  0.5612  0.2448
 4116SOL     OW16235   5.145   5.785   6.345 -0.1644 -0.0912 -0.3257
 4116SOL    HW216236   5.136   5.738   6.261  0.0780 -2.2167  0.7701
 4116SOL    HW316237   5.091   5.735   6.406  0.2304  1.0038  0.9745
 4116SOL    MW416238   5.136   5.772   6.342  0.1827  0.6839 -0.4556
 4117SOL     OW16239   0.291   3.225   3.770 -0.6661 -0.1510 -0.1221
 4117SOL    HW216240   0.229   3.153   3.759  0.9424 -1.6980  0.4365
 4117SOL    HW316241   0.371   3.194   3.728  0.9677  0.0870  2.5744
 4117SOL    MW416242   0.294   3.212   3.763  0.5704  0.4284 -0.2177
 4118SOL     OW16243   6.040   2.197   0.481 -0.6919 -0.0869 -0.0017
 4118SOL    HW216244   6.072   2.287   0.489 -0.1791 -0.0683 -1.7444
 4118SOL    HW316245   6.119   2.145   0.467 -1.1507 -0.4953 -1.1822
 4118SOL    MW416246   6.055   2.202   0.480 -0.4248  0.6420 -0.0492
 4119SOL     OW16247   4.486   5.994   4.230 -0.2378  0.2871 -0.1249
 4119SOL    HW216248   4.450   6.081   4.215  0.5827  0.4875 -1.0844
 4119SOL    HW316249   4.459   5.943   4.153 -1.3578 -0.5399  0.7869
 4119SOL    MW416250   4.478   5.999   4.218 -0.5091 -0.2225 -0.4935
 4120SOL     OW16251   1.376   1.091   4.066  0.9166 -0.2396 -0.3773
 4120SOL    HW216252   1.382   1.006   4.021 -0.5049  0.3683 -1.8090
 4120SOL    HW316253   1.376   1.156   3.996 -2.2771  0.7224  0.3328
 4120SOL    MW416254   1.377   1.088   4.051 -0.1024  0.1981 -0.6693
 4121SOL     OW16255   1.730   5.001   1.485  0.1274  0.3651  0.6426
 4121SOL    HW216256   1.755   5.093   1.495  0.2418  0.2967  0.9905
 4121SOL    HW316257   1.791   4.966   1.420  0.1055  0.5251  0.5352
 4121SOL    MW416258   1.741   5.009   1.478  0.3656  0.1937  0.3060
 4122SOL     OW16259   2.274   1.210   2.026  0.1788  0.2321  0.5619
 4122SOL    HW216260   2.356   1.227   1.979 -0.0840  1.5451  0.5331
 4122SOL    HW316261   2.301   1.158   2.102  0.6392 -1.7188 -0.8635
 4122SOL    MW416262   2.288   1.205   2.030 -0.0835  0.1535  1.1739
 4123SOL     OW16263   4.338   6.399   2.493  0.2302  0.2139  0.0252
 4123SOL    HW216264   4.277   6.424   2.424 -0.1289 -1.9558 -0.5008
 4123SOL    HW316265   4.423   6.395   2.450  0.2660  0.3641  0.0800
 4123SOL    MW416266   4.341   6.402   2.478  0.1676  0.0864 -0.3019
 4124SOL     OW16267   2.037   4.280   2.724  0.1905  0.1315 -0.2140
 4124SOL    HW216268   2.074   4.199   2.758  0.4070 -0.7650 -2.4285
 4124SOL    HW316269   1.998   4.256   2.640 -1.3250  1.9834 -0.1275
 4124SOL    MW416270   2.037   4.266   2.717  0.5512  0.3392  0.4093
 4125SOL     OW16271   0.721   4.216   3.333  0.0250 -0.0160  0.3673
 4125SOL    HW216272   0.679   4.156   3.395  2.8370 -1.1578  1.3289
 4125SOL    HW316273   0.757   4.285   3.389  2.4105 -0.9419  0.0641
 4125SOL    MW416274   0.720   4.217   3.349 -0.0425  0.1463 -0.1509
 4126SOL     OW16275   5.651  -0.012   1.417 -0.2840  0.4396  0.1520
 4126SOL    HW216276   5.633  -0.088   1.473 -0.2542  0.6460  0.4482
 4126SOL    HW316277   5.690  -0.049   1.338 -1.8695 -0.0224 -0.4589
 4126SOL    MW416278   5.654  -0.027   1.414 -0.0680  0.3915  0.0843
 4127SOL     OW16279   5.501   2.366   3.407 -0.1691  0.2190  0.5766
 4127SOL    HW216280   5.528   2.413   3.328 -1.1430  2.5003  1.5125
 4127SOL    HW316281   5.583   2.336   3.446  0.5964  1.9518  0.3749
 4127SOL    MW416282   5.516   2.368   3.402 -0.1219  0.1269 -0.0381
 4128SOL     OW16283   2.754   4.082   2.734  0.1907 -0.7641 -0.0211
 4128SOL    HW216284   2.720   4.054   2.819 -0.4400  1.4730  0.5315
 4128SOL    HW316285   2.829   4.024   2.719 -0.1471 -1.7298  1.6789
 4128SOL    MW416286   2.760   4.071   2.744 -0.5030  0.1761 -0.6356
 4129SOL     OW16287   2.789   5.784   4.371  0.2430  0.1043  0.2865
 4129SOL    HW216288   2.841   5.708   4.345 -0.4344 -0.0111 -0.7774
 4129SOL    HW316289   2.781   5.777   4.466  0.6057 -0.8737  0.2519
 4129SOL    MW416290   2.795   5.773   4.380  0.3026 -0.7109  0.0013
 4130SOL     OW16291   4.807   6.157   2.327 -0.1931  0.0912 -0.4181
 4130SOL    HW216292   4.878   6.221   2.320 -0.7342  0.7425 -0.1543
 4130SOL    HW316293   4.728   6.207   2.304 -0.7385 -0.2611  0.6254
 4130SOL    MW416294   4.806   6.172   2.323  0.1346  0.7909 -0.1199
 4131SOL     OW16295   2.556   5.937   0.912 -0.0404  0.5064 -0.0126
 4131SOL    HW216296   2.498   5.901   0.980 -0.8040 -0.0261 -0.9167
 4131SOL    HW316297   2.559   6.031   0.930  0.9837  0.1986  1.6510
 4131SOL    MW416298   2.549   5.944   0.923  0.5420  0.1394  0.0599
 4132SOL     OW16299   3.026   1.108   3.945 -0.4995 -0.2427 -0.0317
 4132SOL    HW216300   3.061   1.102   3.857  1.6564  2.0047  0.5606
 4132SOL    HW316301   2.972   1.188   3.944 -1.0768 -0.6119  0.5220
 4132SOL    MW416302   3.023   1.118   3.934 -0.4379  0.4445  0.0328
 4133SOL     OW16303   4.686   5.693   0.083 -0.2305 -0.0312 -0.1367
 4133SOL    HW216304   4.658   5.672   0.172 -0.7775 -0.0294 -0.3051
 4133SOL    HW316305   4.627   5.643   0.027  0.7328 -0.7911 -0.4909
 4133SOL    MW416306   4.675   5.684   0.088  0.0032  0.0758  0.2294
 4134SOL     OW16307   5.005   3.797   6.130  0.2070  0.8939 -0.2708
 4134SOL    HW216308   4.987   3.830   6.042  2.6222 -1.5730 -1.8587
 4134SOL    HW316309   4.988   3.703   6.124  0.3802  0.6704  1.9409
 4134SOL    MW416310   5.000   3.789   6.117 -0.0497 -0.6156  0.1315
 4135SOL     OW16311   5.190   0.500   5.234 -0.0286 -0.2977  0.1680
 4135SOL    HW216312   5.174   0.572   5.294  0.3074 -0.6758  0.7189
 4135SOL    HW316313   5.154   0.530   5.151  1.8540  1.3258 -0.1413
 4135SOL    MW416314   5.183   0.513   5.231 -0.1474 -0.3244 -0.1886
 4136SOL     OW16315   2.544   4.880   3.935 -0.6854  0.0855 -0.1982
 4136SOL    HW216316   2.510   4.899   4.022  1.5149  2.0668  0.3327
 4136SOL    HW316317   2.549   4.965   3.892  1.8760 -0.2984 -0.8153
 4136SOL    MW416318   2.540   4.894   3.941 -0.3733  0.0515 -0.0684
 4137SOL     OW16319   4.457   5.933   5.503  0.1471  0.0641 -0.5110
 4137SOL    HW216320   4.497   5.969   5.424  0.8352  0.1955 -0.1078
 4137SOL    HW316321   4.519   5.954   5.573 -0.9712  0.9487  0.2533
 4137SOL    MW416322   4.470   5.941   5.502  0.4186 -0.2057  0.0966
 4138SOL     OW16323   1.219   3.860   4.379 -0.0383 -0.2932  0.4699
 4138SOL    HW216324   1.312   3.838   4.385  0.3840  1.3445  0.1971
 4138SOL    HW316325   1.189   3.814   4.300  1.0952  0.9923 -0.7497
 4138SOL    MW416326   1.227   3.851   4.369 -1.0127  0.0810 -0.7499
 4139SOL     OW16327   0.826   1.822   1.549 -0.1462 -0.8148 -0.4343
 4139SOL    HW216328   0.785   1.907   1.569  0.2454 -0.3416 -1.5613
 4139SOL    HW316329   0.865   1.795   1.632 -0.3060  0.0954 -0.0430
 4139SOL    MW416330   0.826   1.830   1.562  0.2150  0.5228  0.1093
 4140SOL     OW16331   4.216   4.990   2.349  0.6295 -0.0435  0.2949
 4140SOL    HW216332   4.256   4.965   2.433  1.3830  0.3528  0.0721
 4140SOL    HW316333   4.285   5.040   2.304 -0.2078  0.8787 -0.0128
 4140SOL    MW416334   4.231   4.994   2.354 -0.1940 -0.0151  0.2950
 4141SOL     OW16335   1.220   5.026   0.677  0.2074 -0.3576 -0.3156
 4141SOL    HW216336   1.281   5.089   0.638  1.0345 -1.0907 -0.2387
 4141SOL    HW316337   1.207   4.960   0.609 -1.8923  0.6508 -0.9984
 4141SOL    MW416338   1.226   5.026   0.663  0.3961 -0.0599 -0.5311
 4142SOL     OW16339   5.785   5.879   5.700  0.1751  0.0387  0.2479
 4142SOL    HW216340   5.753   5.907   5.786 -1.3592  0.6554 -0.4813
 4142SOL    HW316341   5.744   5.794   5.685  0.6550 -0.1921  0.2456
 4142SOL    MW416342   5.775   5.872   5.709 -0.5085 -0.2075 -0.4573
 4143SOL     OW16343   4.969   2.358   5.190  0.0804 -1.0440 -0.2483
 4143SOL    HW216344   4.936   2.332   5.276  0.8667 -0.5824  0.1973
 4143SOL    HW316345   4.893   2.396   5.146  0.0441  0.2300  0.8517
 4143SOL    MW416346   4.954   2.359   5.195 -0.1596  0.2955 -0.0419
 4144SOL     OW16347   0.860   6.213   4.906  0.1636 -0.1374  0.4673
 4144SOL    HW216348   0.866   6.308   4.909 -1.6494  0.0011  1.2430
 4144SOL    HW316349   0.937   6.185   4.857  0.3305  1.7659 -0.4284
 4144SOL    MW416350   0.871   6.222   4.900 -0.2629 -0.3075 -0.2121
 4145SOL     OW16351   2.914   3.129   2.961  0.2666  0.7183  0.0179
 4145SOL    HW216352   2.990   3.138   2.902  0.6857 -0.3736  0.3669
 4145SOL    HW316353   2.896   3.036   2.962 -0.4249  0.8531  0.7846
 4145SOL    MW416354   2.922   3.118   2.953  0.3972 -0.1188  0.5502
 4146SOL     OW16355   5.749   5.536   3.640  0.1255 -0.2763 -0.1480
 4146SOL    HW216356   5.786   5.449   3.657 -1.0096 -0.6913  0.2734
 4146SOL    HW316357   5.660   5.519   3.610  0.3054  0.7021 -1.3198
 4146SOL    MW416358   5.742   5.523   3.638  0.0573 -0.9388  0.1818
 4147SOL     OW16359   3.746   6.117   4.502 -0.1915 -0.5415  0.1454
 4147SOL    HW216360   3.682   6.115   4.431 -0.7203 -0.4691  0.6159
 4147SOL    HW316361   3.798   6.196   4.485  0.1720 -0.9152 -0.5705
 4147SOL    MW416362   3.745   6.127   4.490 -0.2958  0.4921 -0.3808
 4148SOL     OW16363   2.700   1.172   3.233 -0.2654  0.2945 -0.1952
 4148SOL    HW216364   2.654   1.088   3.237  0.1875  0.0676  3.8468
 4148SOL    HW316365   2.646   1.232   3.285  2.0856  0.9539  1.6791
 4148SOL    MW416366   2.687   1.169   3.240  0.1461  0.6476 -0.1374
 4149SOL     OW16367   1.059   0.671   0.134 -0.2734 -0.4114 -0.1200
 4149SOL    HW216368   1.143   0.717   0.130 -1.2207  1.4281 -0.1132
 4149SOL    HW316369   1.055   0.635   0.223  1.2602 -2.1152 -0.6932
 4149SOL    MW416370   1.069   0.672   0.145 -0.4264  0.1504  0.1638
 4150SOL     OW16371   5.145   5.842   3.207 -0.3350  0.2881  0.2569
 4150SOL    HW216372   5.081   5.817   3.140  0.4270  2.3571 -1.3495
 4150SOL    HW316373   5.109   5.921   3.247  0.3431  0.4196  0.6300
 4150SOL    MW416374   5.132   5.849   3.204 -0.0311 -0.3522 -0.4025
 4151SOL     OW16375   6.214   0.850   5.205  0.0831  0.3712 -0.3852
 4151SOL    HW216376   6.193   0.838   5.297  1.6209 -0.2475 -0.0873
 4151SOL    HW316377   6.134   0.827   5.158 -0.0805 -1.3931  0.6921
 4151SOL    MW416378   6.201   0.845   5.211 -0.6052  0.5575 -0.1412
 4152SOL     OW16379   4.394   2.818   5.528  0.3678  0.1009  0.2397
 4152SOL    HW216380   4.380   2.765   5.450  2.7276 -0.6048  0.2188
 4152SOL    HW316381   4.373   2.760   5.601  1.9888 -0.5779  0.1921
 4152SOL    MW416382   4.389   2.803   5.527  0.4312 -0.3928  0.4156
 4153SOL     OW16383   0.787   3.952   5.196  0.3963  0.1269  0.1859
 4153SOL    HW216384   0.706   3.913   5.229 -0.1641  0.8618 -0.2693
 4153SOL    HW316385   0.848   3.879   5.190 -0.3696 -0.5295  0.1290
 4153SOL    MW416386   0.784   3.938   5.200  0.5832 -0.1259 -0.3156
 4154SOL     OW16387   3.850   1.613   2.423  1.1963  0.2961  0.5784
 4154SOL    HW216388   3.877   1.682   2.362  0.8353  0.1556  0.2542
 4154SOL    HW316389   3.807   1.548   2.368 -0.5137  0.8759  1.1716
 4154SOL    MW416390   3.848   1.614   2.408 -0.1958 -0.6869 -0.2154
 4155SOL     OW16391   0.558   0.427   2.195 -0.7070 -0.4516 -0.5965
 4155SOL    HW216392   0.508   0.357   2.236 -1.0370  0.8123  1.2699
 4155SOL    HW316393   0.573   0.396   2.106 -1.0911 -2.7473  0.0593
 4155SOL    MW416394   0.553   0.414   2.189 -0.0197  0.4500 -0.1470
 4156SOL     OW16395   1.163   2.103   5.044 -0.2033  0.4478 -0.3944
 4156SOL    HW216396   1.163   2.195   5.069 -0.7009 -0.1871  2.1818
 4156SOL    HW316397   1.113   2.101   4.962  0.3664  2.5093 -0.8546
 4156SOL    MW416398   1.156   2.115   5.036 -0.3755 -0.0216  0.0372
 4157SOL     OW16399   3.031   4.348   1.874  0.0334  0.1976  0.0313
 4157SOL    HW216400   2.944   4.308   1.875  0.1354 -0.1956  3.2895
 4157SOL    HW316401   3.060   4.346   1.965  3.9187 -0.6459 -1.0191
 4157SOL    MW416402   3.024   4.342   1.886 -0.3950  0.4601  0.1163
 4158SOL     OW16403   5.756   2.829   6.203 -0.3898 -0.0598 -0.0464
 4158SOL    HW216404   5.756   2.746   6.155 -2.4442 -0.4657  0.5360
 4158SOL    HW316405   5.839   2.870   6.180  0.7108 -2.2841 -0.3337
 4158SOL    MW416406   5.767   2.824   6.193 -0.7455  0.0722  0.2523
 4159SOL     OW16407   4.105   5.341   6.233 -0.2450 -0.3418  0.3120
 4159SOL    HW216408   4.090   5.379   6.146 -0.4638 -1.2103 -0.0435
 4159SOL    HW316409   4.172   5.397   6.272 -0.2657  0.1628 -0.3549
 4159SOL    MW416410   4.112   5.353   6.226 -0.8416  0.7097 -0.3179
 4160SOL     OW16411   4.848   5.794   1.074 -0.0102 -0.6904 -0.1369
 4160SOL    HW216412   4.918   5.729   1.070  0.1015 -0.6759  1.2566
 4160SOL    HW316413   4.807   5.781   1.160  0.2231  1.2849  0.3136
 4160SOL    MW416414   4.852   5.783   1.085  0.1271  0.3625  0.3523
 4161SOL     OW16415   5.666   5.672   5.205 -0.3818  0.0411  0.7558
 4161SOL    HW216416   5.594   5.735   5.197  0.2525  0.6264 -0.8528
 4161SOL    HW316417   5.682   5.643   5.115  1.0335 -0.4665  1.1415
 4161SOL    MW416418   5.659   5.677   5.192  0.4642  0.3478 -0.0809
 4162SOL     OW16419   5.562   0.240   2.976  0.5797  0.3006 -0.2417
 4162SOL    HW216420   5.563   0.261   2.882  3.8808  1.6429 -0.0349
 4162SOL    HW316421   5.544   0.146   2.979  0.1781  0.2661 -2.1832
 4162SOL    MW416422   5.560   0.230   2.964  0.0561 -0.2646  0.1419
 4163SOL     OW16423   0.530   6.051   6.198  0.0602  0.1108  1.1001
 4163SOL    HW216424   0.539   6.101   6.116  1.3347  0.2059  1.2912
 4163SOL    HW316425   0.444   6.077   6.231  0.3391  1.5658  0.7709
 4163SOL    MW416426   0.520   6.061   6.191 -0.1547 -0.3835 -0.2771
 4164SOL     OW16427   3.774   4.511   5.336  0.4662 -0.0275 -0.7969
 4164SOL    HW216428   3.807   4.600   5.353 -0.1689 -0.0656  0.8171
 4164SOL    HW316429   3.837   4.473   5.275  2.2228  0.6453  0.5258
 4164SOL    MW416430   3.787   4.518   5.330  0.3317  0.5588 -0.0810
 4165SOL     OW16431   4.370   6.332   5.758 -0.1802  0.3813 -0.1506
 4165SOL    HW216432   4.365   6.299   5.669  2.6413  0.0867 -0.3047
 4165SOL    HW316433   4.417   6.416   5.750  1.4183 -0.3278  1.1226
 4165SOL    MW416434   4.376   6.339   5.745 -0.2430  0.0286  0.1620
 4166SOL     OW16435   3.297   4.245   3.517 -0.0508  0.6923 -0.0153
 4166SOL    HW216436   3.347   4.280   3.590 -1.1699 -0.2346  1.2469
 4166SOL    HW316437   3.230   4.311   3.499  0.8227  1.3724 -0.8971
 4166SOL    MW416438   3.295   4.258   3.524 -0.2831  0.7538  0.5536
 4167SOL     OW16439   5.213   0.965   5.957 -0.0098  0.3468 -0.4244
 4167SOL    HW216440   5.220   0.980   5.863  0.3037 -1.0191 -0.6367
 4167SOL    HW316441   5.119   0.971   5.975 -0.0610  0.7240 -0.7956
 4167SOL    MW416442   5.202   0.968   5.947  0.0436 -0.4554 -0.0720
 4168SOL     OW16443   2.373   4.856   2.663 -0.2141  0.0359  0.2064
 4168SOL    HW216444   2.431   4.824   2.594  1.7165 -0.8742  2.1267
 4168SOL    HW316445   2.421   4.930   2.702  0.4676 -1.5964  2.7361
 4168SOL    MW416446   2.387   4.862   2.659  0.3046 -0.3154 -0.0792
 4169SOL     OW16447   1.107   5.492   1.240  0.5008 -0.0746 -0.3637
 4169SOL    HW216448   1.174   5.431   1.211  1.7344  0.5050  1.1201
 4169SOL    HW316449   1.025   5.443   1.232  1.4612 -2.0720  1.0178
 4169SOL    MW416450   1.105   5.477   1.235  0.0685 -0.1660  0.0125
 4170SOL     OW16451   0.491   1.562   3.605 -0.0400  0.1148 -0.3404
 4170SOL    HW216452   0.466   1.504   3.677  0.1679 -1.3129 -1.3697
 4170SOL    HW316453   0.586   1.563   3.606 -0.0454  0.8130 -0.0564
 4170SOL    MW416454   0.500   1.555   3.614 -0.0162  0.4403  0.0572
 4171SOL     OW16455   1.088   4.469   0.081 -0.4169  0.2970  0.0219
 4171SOL    HW216456   1.126   4.455   0.168  0.3709  0.0940 -0.3498
 4171SOL    HW316457   0.993   4.473   0.097 -0.3504 -0.7493  0.7550
 4171SOL    MW416458   1.080   4.468   0.095  0.0617  0.7549 -0.9556
 4172SOL     OW16459   2.520   5.755   4.230  0.3750 -0.3259 -0.4735
 4172SOL    HW216460   2.588   5.774   4.294 -0.9415  1.2805  0.5062
 4172SOL    HW316461   2.540   5.812   4.156 -0.8453  1.4548  0.5201
 4172SOL    MW416462   2.532   5.765   4.228 -0.4008  0.2578 -0.0405
 4173SOL     OW16463   3.087   2.458   6.358  0.0216 -0.0304  0.4221
 4173SOL    HW216464   3.181   2.443   6.359  0.1885  0.9266  0.0560
 4173SOL    HW316465   3.050   2.380   6.399  1.0526  0.2000  1.8525
 4173SOL    MW416466   3.094   2.446   6.364 -0.2133 -0.4695  0.5618
 4174SOL     OW16467   1.391   0.264   0.959 -0.2960  0.1737 -0.1105
 4174SOL    HW216468   1.380   0.301   0.872  1.4119 -0.1986 -0.5244
 4174SOL    HW316469   1.348   0.179   0.955 -0.9233  0.4991 -0.3374
 4174SOL    MW416470   1.384   0.258   0.947 -0.1798 -0.3261  0.0448
 4175SOL     OW16471   0.670   4.230   4.220 -0.4918  0.4355  0.2763
 4175SOL    HW216472   0.599   4.255   4.280 -1.5137  0.9626 -1.0967
 4175SOL    HW316473   0.649   4.276   4.139  0.9676 -0.1073 -0.4331
 4175SOL    MW416474   0.658   4.240   4.218  0.2846  0.1748 -0.1713
 4176SOL     OW16475   4.289   3.797   6.358  0.2423  0.2372  0.1097
 4176SOL    HW216476   4.280   3.821   6.450 -1.5497 -1.0354  0.3180
 4176SOL    HW316477   4.211   3.745   6.339  0.3767  0.7788 -2.2386
 4176SOL    MW416478   4.278   3.793   6.368 -0.0906 -0.2333  0.5466
 4177SOL     OW16479   1.323   0.632   3.728  0.0016 -0.0494  0.0999
 4177SOL    HW216480   1.260   0.662   3.663 -0.5181 -0.5905  0.3517
 4177SOL    HW316481   1.355   0.549   3.694  0.7513  0.3175 -0.1329
 4177SOL    MW416482   1.319   0.625   3.715 -0.7958 -0.2629 -0.0467
 4178SOL     OW16483   0.965   4.948   1.375  0.5589  0.1462 -0.2953
 4178SOL    HW216484   1.024   4.876   1.352 -0.4071 -0.7181 -0.1093
 4178SOL    HW316485   0.892   4.906   1.421  0.1274  1.2803  0.0827
 4178SOL    MW416486   0.963   4.933   1.378 -0.6982  0.0920  0.2984
 4179SOL     OW16487   0.364   1.209   6.385 -0.2828 -0.3886 -0.2459
 4179SOL    HW216488   0.362   1.215   6.290  0.3435 -0.0637 -0.2475
 4179SOL    HW316489   0.407   1.125   6.403  0.7231  0.1047 -0.2639
 4179SOL    MW416490   0.370   1.199   6.375  0.2360  0.2000 -0.4300
 4180SOL     OW16491   2.631   1.951   1.287  0.1388  0.2943 -0.5580
 4180SOL    HW216492   2.574   1.907   1.350  0.0068  2.3216  0.8271
 4180SOL    HW316493   2.573   1.975   1.215  0.0842 -1.1710 -1.0219
 4180SOL    MW416494   2.616   1.948   1.286  0.4762  0.3571  0.2866
 4181SOL     OW16495   2.900   2.790   5.424  0.1824  0.3917 -0.7564
 4181SOL    HW216496   2.872   2.875   5.389 -0.5517 -0.1276 -1.4651
 4181SOL    HW316497   2.831   2.766   5.486  0.6394  0.5294 -0.1808
 4181SOL    MW416498   2.887   2.798   5.428  0.4963 -0.2057 -0.0158
 4182SOL     OW16499   5.286   0.624   1.631 -0.4131  0.0295 -0.2237
 4182SOL    HW216500   5.224   0.555   1.606  1.0104 -0.8681 -1.3566
 4182SOL    HW316501   5.343   0.634   1.555 -0.4548  2.3599 -0.0220
 4182SOL    MW416502   5.285   0.617   1.618 -0.3735  0.0365  0.1988
 4183SOL     OW16503   4.959   5.742   4.855  0.2090 -0.2579  0.0832
 4183SOL    HW216504   4.868   5.762   4.832 -0.0855 -2.3566 -0.7976
 4183SOL    HW316505   4.979   5.801   4.928 -0.8369  2.3947 -1.5964
 4183SOL    MW416506   4.949   5.753   4.861 -0.6722  0.4365 -0.2012
 4184SOL     OW16507   2.745   2.242   5.237 -0.5067 -0.1054 -0.0362
 4184SOL    HW216508   2.798   2.240   5.158 -0.0989 -0.5950  0.2490
 4184SOL    HW316509   2.678   2.175   5.223 -0.8723  0.3071 -0.2705
 4184SOL    MW416510   2.743   2.233   5.225 -0.2390 -0.1097  0.2713
 4185SOL     OW16511   0.438   0.244   5.055 -0.2262  0.0380  0.2974
 4185SOL    HW216512   0.418   0.299   4.980 -0.5524 -0.9891 -0.3852
 4185SOL    HW316513   0.533   0.246   5.063 -0.0619 -1.0527 -1.0968
 4185SOL    MW416514   0.448   0.252   5.046 -0.0566  0.0710  0.5985
 4186SOL     OW16515   0.011   4.466   0.799 -0.0666  0.3715 -0.1665
 4186SOL    HW216516   0.052   4.544   0.837  1.1435 -0.0868 -0.4871
 4186SOL    HW316517   0.078   4.430   0.741 -1.3352  0.2193 -1.5907
 4186SOL    MW416518   0.025   4.472   0.796 -0.4772  0.0180  0.4424
 4187SOL     OW16519   1.078   0.692   2.826  0.2179  0.2661  0.0701
 4187SOL    HW216520   1.005   0.749   2.850  1.0107  0.8064  1.2819
 4187SOL    HW316521   1.045   0.604   2.839 -0.5709  0.4638 -0.4862
 4187SOL    MW416522   1.064   0.688   2.831  0.0177 -0.5381 -0.3428
 4188SOL     OW16523   4.570   3.903   5.693  0.2028 -0.2261 -0.2230
 4188SOL    HW216524   4.623   3.973   5.732  0.6380 -0.4490 -0.4073
 4188SOL    HW316525   4.632   3.851   5.643 -0.2546 -0.2814 -0.7431
 4188SOL    MW416526   4.585   3.906   5.692 -0.1124  0.3445  0.3327
 4189SOL     OW16527   3.747   4.808   3.079 -0.6670 -0.3201  0.0743
 4189SOL    HW216528   3.807   4.882   3.087  0.5950 -1.2627 -0.3376
 4189SOL    HW316529   3.701   4.804   3.163  0.0726  0.2423  0.5144
 4189SOL    MW416530   3.748   4.817   3.091  0.1182  0.9142 -0.9092
 4190SOL     OW16531   2.683   6.273   3.661  0.0320  0.1590 -0.7091
 4190SOL    HW216532   2.769   6.238   3.638 -0.1587 -0.1483 -0.9734
 4190SOL    HW316533   2.637   6.279   3.577  0.4060  2.0367 -0.8173
 4190SOL    MW416534   2.688   6.269   3.647 -0.5225  0.2308  0.0155
 4191SOL     OW16535   4.814   4.205   2.299  0.9184 -1.4618  0.0596
 4191SOL    HW216536   4.793   4.115   2.274  0.2316 -1.3271  0.1235
 4191SOL    HW316537   4.832   4.249   2.216 -1.8117 -0.9026 -0.3223
 4191SOL    MW416538   4.814   4.199   2.285  0.6782 -0.3943  0.1330
 4192SOL     OW16539   5.940   2.318   0.035 -0.1369 -0.0555  0.4323
 4192SOL    HW216540   5.894   2.282   0.110 -0.5773 -1.5373 -0.5159
 4192SOL    HW316541   5.872   2.362  -0.016  0.2945  1.6593  1.2677
 4192SOL    MW416542   5.925   2.319   0.038  0.2199 -0.4751 -0.0481
 4193SOL     OW16543   5.614   2.135   0.357 -0.1410 -0.4825 -0.2045
 4193SOL    HW216544   5.580   2.204   0.414  0.0559  1.0421 -1.8407
 4193SOL    HW316545   5.706   2.160   0.342  0.2588 -1.7263  0.0455
 4193SOL    MW416546   5.622   2.147   0.363  0.2848  0.4233 -0.3903
 4194SOL     OW16547   2.877   5.100   1.669 -0.0504  0.6000  0.0818
 4194SOL    HW216548   2.804   5.095   1.731  0.6249  3.5154  1.3060
 4194SOL    HW316549   2.838   5.136   1.590 -0.5721 -1.3799 -0.6028
 4194SOL    MW416550   2.862   5.104   1.667 -0.1632 -0.0617  0.0506
 4195SOL     OW16551   1.606   4.660   3.610 -0.2233  0.4862 -0.6076
 4195SOL    HW216552   1.532   4.638   3.553 -0.3643  0.4521 -0.4119
 4195SOL    HW316553   1.683   4.638   3.558 -0.3403  0.9984 -1.0101
 4195SOL    MW416554   1.606   4.654   3.595  0.0350 -0.0167 -0.4783
 4196SOL     OW16555   3.466   1.123   1.747  0.1247  0.4640 -0.9348
 4196SOL    HW216556   3.390   1.097   1.799  1.3070  0.4431  0.8677
 4196SOL    HW316557   3.456   1.217   1.735  0.2465  0.6172  0.0698
 4196SOL    MW416558   3.455   1.132   1.753  1.0150  0.0394 -0.4940
 4197SOL     OW16559   0.482   6.335   0.362 -0.1446 -0.0791 -0.2721
 4197SOL    HW216560   0.421   6.389   0.311 -0.2996 -1.0129 -1.0903
 4197SOL    HW316561   0.432   6.257   0.384 -0.0096  0.2027  1.1494
 4197SOL    MW416562   0.467   6.332   0.358 -0.2694 -0.1351 -0.8352
 4198SOL     OW16563   1.904   4.524   0.448  0.5387 -1.0613  0.3106
 4198SOL    HW216564   1.897   4.431   0.471  0.3533 -1.7044 -2.1145
 4198SOL    HW316565   1.893   4.526   0.353  1.4427  1.3674  0.1996
 4198SOL    MW416566   1.902   4.512   0.439  1.2402 -0.0163 -0.0834
 4199SOL     OW16567   5.698   6.397   5.184 -0.2442 -0.0808 -0.1925
 4199SOL    HW216568   5.648   6.332   5.234  1.1354  0.3948  1.9004
 4199SOL    HW316569   5.756   6.345   5.128  0.0251 -0.6695  0.6181
 4199SOL    MW416570   5.699   6.382   5.183 -0.3837  0.6190 -0.3140
 4200SOL     OW16571   2.204   2.149   1.879 -0.3501  0.0152 -0.0739
 4200SOL    HW216572   2.208   2.128   1.786 -2.9613  0.5098 -0.3819
 4200SOL    HW316573   2.121   2.111   1.909  0.0023  0.6252  1.8449
 4200SOL    MW416574   2.194   2.141   1.871  0.3800  0.1526  0.0535
 4201SOL     OW16575   6.215   1.462   1.147  0.3157  0.0748 -0.4285
 4201SOL    HW216576   6.187   1.447   1.237  0.1426  1.6565 -0.1836
 4201SOL    HW316577   6.258   1.381   1.120 -1.0161 -0.9833  0.5388
 4201SOL    MW416578   6.217   1.449   1.155 -0.1113 -0.1831 -0.6905
 4202SOL     OW16579   1.213   2.644   4.485 -0.1669 -0.4905  0.2117
 4202SOL    HW216580   1.300   2.681   4.500  0.3525 -1.2475 -0.7727
 4202SOL    HW316581   1.203   2.645   4.390 -0.4061 -2.1986  0.1860
 4202SOL    MW416582   1.223   2.649   4.474 -0.0891  0.4593 -0.1250
 4203SOL     OW16583   2.342   3.099   6.087 -0.0220  0.4099 -0.0104
 4203SOL    HW216584   2.390   3.106   6.005 -1.2913  0.3472 -0.7819
 4203SOL    HW316585   2.384   3.163   6.145  2.6255 -1.3826  0.2360
 4203SOL    MW416586   2.354   3.108   6.084  0.1004  0.0203 -0.4151
 4204SOL     OW16587   4.156   4.346   2.446  0.5297 -0.1529  0.0143
 4204SOL    HW216588   4.068   4.354   2.483  0.6118  0.9996 -0.0107
 4204SOL    HW316589   4.207   4.304   2.515  0.4699  1.1759  0.9114
 4204SOL    MW416590   4.151   4.341   2.460  0.1619 -0.1173  1.0175
 4205SOL     OW16591   4.872   0.650   5.258 -0.4517  0.0899  0.6475
 4205SOL    HW216592   4.945   0.677   5.314  0.4981  2.2232 -1.4411
 4205SOL    HW316593   4.915   0.614   5.180 -1.7064 -1.1642  0.5033
 4205SOL    MW416594   4.888   0.648   5.255  0.0535  0.9307 -0.3512
 4206SOL     OW16595   0.243   3.779   0.120 -0.0912  0.5492 -0.4072
 4206SOL    HW216596   0.330   3.808   0.096 -0.0806  2.3883  1.5705
 4206SOL    HW316597   0.187   3.805   0.047  0.6803  1.3046 -0.7407
 4206SOL    MW416598   0.247   3.786   0.108 -0.3993  0.3862 -0.4727
 4207SOL     OW16599   3.610   2.869   2.070  0.9325 -0.0682 -0.4245
 4207SOL    HW216600   3.603   2.787   2.120 -1.6597 -2.4419 -4.1188
 4207SOL    HW316601   3.521   2.903   2.067  1.3755  1.0541 -1.7485
 4207SOL    MW416602   3.597   2.862   2.076 -0.0809  0.0813 -0.1485
 4208SOL     OW16603   6.394   3.235   0.218  0.1926 -0.6209 -0.5735
 4208SOL    HW216604   6.358   3.271   0.137  2.1924 -0.1154 -1.2797
 4208SOL    HW316605   6.420   3.312   0.269  1.1013 -0.9894 -0.4750
 4208SOL    MW416606   6.392   3.250   0.214  0.5180  0.3395 -0.3562
 4209SOL     OW16607   4.697   4.003   1.492 -0.2382 -0.1374 -1.1575
 4209SOL    HW216608   4.605   3.984   1.510 -0.1433  0.4782  0.0929
 4209SOL    HW316609   4.703   4.099   1.496  0.5161 -0.1888 -0.8970
 4209SOL    MW416610   4.686   4.013   1.495 -0.1915  0.6309 -0.0661
 4210SOL     OW16611   0.605   4.434   0.042  0.0017 -0.0317 -0.2422
 4210SOL    HW216612   0.560   4.445   0.126  0.3887 -0.2011 -0.0116
 4210SOL    HW316613   0.643   4.346   0.046  1.2099  0.4747 -0.0206
 4210SOL    MW416614   0.604   4.424   0.054 -0.1532 -0.7713  0.4910
 4211SOL     OW16615   2.804   0.617   3.066 -0.1830 -0.0958 -0.0117
 4211SOL    HW216616   2.723   0.621   3.016 -0.4040  1.4521  0.4167
 4211SOL    HW316617   2.873   0.607   3.000 -0.5061  1.4136 -0.6102
 4211SOL    MW416618   2.803   0.616   3.051 -0.2237  0.6567  0.0646
 4212SOL     OW16619   4.102   3.959   6.061 -0.3860 -0.4529 -0.5277
 4212SOL    HW216620   4.141   3.991   6.142 -1.0991 -2.9313  0.8908
 4212SOL    HW316621   4.163   3.891   6.031 -2.0344 -2.3070  0.1353
 4212SOL    MW416622   4.115   3.954   6.068 -0.8353  0.2764 -0.5098
 4213SOL     OW16623   0.817   0.594   5.584 -0.2146  0.5060  0.0689
 4213SOL    HW216624   0.868   0.673   5.566 -0.3918  1.0137  1.6326
 4213SOL    HW316625   0.726   0.622   5.576 -0.2804  0.1565 -0.4984
 4213SOL    MW416626   0.812   0.608   5.580  0.3467  0.1411 -0.1388
 4214SOL     OW16627   0.242   5.049   2.891 -0.1142  0.4796  0.6239
 4214SOL    HW216628   0.165   5.105   2.893  0.6624  1.5913  0.2536
 4214SOL    HW316629   0.207   4.960   2.895 -1.3723  0.9762  1.1542
 4214SOL    MW416630   0.227   5.044   2.891  0.3251  0.6433  0.7133
 4215SOL     OW16631   5.459   4.398   1.552  0.3118 -0.1999 -0.5141
 4215SOL    HW216632   5.386   4.456   1.576  0.5155 -0.0647 -0.2160
 4215SOL    HW316633   5.536   4.455   1.554  0.6405 -0.6623  0.5925
 4215SOL    MW416634   5.459   4.413   1.555 -0.1891  0.6789 -0.0063
 4216SOL     OW16635   5.858   5.272   3.668 -0.4020 -0.1615 -0.7880
 4216SOL    HW216636   5.943   5.287   3.710  0.4341 -0.4517 -2.2736
 4216SOL    HW316637   5.836   5.182   3.691 -0.2790 -0.1068 -0.4475
 4216SOL    MW416638   5.867   5.262   3.676 -0.0214 -0.4603 -0.0675
 4217SOL     OW16639   5.324   6.215   3.726 -0.1960 -0.0481  0.0369
 4217SOL    HW216640   5.385   6.287   3.741  0.5449 -0.4888 -0.7421
 4217SOL    HW316641   5.258   6.225   3.794  1.3873 -0.2688  1.6923
 4217SOL    MW416642   5.324   6.226   3.737  0.3252  0.4689 -0.0037
 4218SOL     OW16643   3.143   1.254   0.920  0.1057  1.0357 -0.4095
 4218SOL    HW216644   3.199   1.216   0.852  0.6004 -0.5666  0.8252
 4218SOL    HW316645   3.141   1.188   0.989  0.4941  3.0308  1.6215
 4218SOL    MW416646   3.150   1.240   0.920  0.6464  0.5986  0.2686
 4219SOL     OW16647   5.701   2.768   5.695 -0.0349  0.4321  1.2745
 4219SOL    HW216648   5.697   2.837   5.629  1.7020  1.0916  1.7933
 4219SOL    HW316649   5.671   2.810   5.775 -1.4362 -0.1634  1.0878
 4219SOL    MW416650   5.696   2.783   5.697 -0.5917  0.4507 -0.2214
 4220SOL     OW16651   2.815   2.004   2.052 -0.0220  0.1772  0.6370
 4220SOL    HW216652   2.889   2.037   2.002  0.9288 -0.2291  1.7519
 4220SOL    HW316653   2.836   2.024   2.143 -0.0063 -2.2988  1.2408
 4220SOL    MW416654   2.827   2.011   2.057 -0.2386  0.0511 -0.5467
 4221SOL     OW16655   2.352   0.617   1.973  0.5506  0.1492 -0.4698
 4221SOL    HW216656   2.300   0.694   1.998  1.3115  0.5427 -0.0836
 4221SOL    HW316657   2.290   0.561   1.926 -0.0328  0.9633 -0.6891
 4221SOL    MW416658   2.337   0.620   1.970 -0.2470 -0.5215  0.9706
 4222SOL     OW16659   1.368   1.333   0.641 -0.3279 -0.1049 -0.2827
 4222SOL    HW216660   1.456   1.296   0.634  0.1295  0.9363 -0.2162
 4222SOL    HW316661   1.310   1.257   0.641  0.5540 -0.7947 -0.5510
 4222SOL    MW416662   1.372   1.318   0.640  0.2282  0.3904  0.1054
 4223SOL     OW16663   2.304   2.908   3.016  0.1460 -0.2238 -0.4972
 4223SOL    HW216664   2.300   2.889   3.110  0.4479  0.5370 -0.3261
 4223SOL    HW316665   2.349   2.992   3.010  0.0062 -0.1983 -1.3209
 4223SOL    MW416666   2.310   2.916   3.028 -0.0027 -0.2089  0.1683
 4224SOL     OW16667   3.075   3.101   0.094  0.0099  0.1889  0.0484
 4224SOL    HW216668   3.034   3.187   0.082 -0.7225  0.0575  1.4507
 4224SOL    HW316669   3.019   3.056   0.157  0.0334 -1.5845 -1.1374
 4224SOL    MW416670   3.062   3.107   0.100 -0.3365  0.7473  0.1231
 4225SOL     OW16671   0.354   4.777   4.951 -0.1230  0.2344 -0.2463
 4225SOL    HW216672   0.435   4.817   4.982  0.0021 -0.0270 -0.2287
 4225SOL    HW316673   0.364   4.684   4.973 -1.3288  0.5215  1.6509
 4225SOL    MW416674   0.366   4.770   4.958 -0.1395 -0.2510  0.1053
 4226SOL     OW16675   2.139   0.217   4.965 -0.5492  0.6785 -0.1614
 4226SOL    HW216676   2.090   0.267   5.031 -4.0664 -1.7679 -0.6540
 4226SOL    HW316677   2.092   0.233   4.883  1.6155  0.8350 -1.4597
 4226SOL    MW416678   2.126   0.226   4.963  0.4453  0.3451  0.0706
 4227SOL     OW16679   1.819   0.621   0.495 -0.2224  0.4118  0.7596
 4227SOL    HW216680   1.881   0.599   0.565  0.2006  1.3775  0.7058
 4227SOL    HW316681   1.871   0.617   0.415 -0.5800 -0.1826  0.5570
 4227SOL    MW416682   1.834   0.618   0.494 -0.0013 -0.4418 -0.0819
 4228SOL     OW16683   1.141   2.334   0.057  0.1664 -0.2351  0.3963
 4228SOL    HW216684   1.094   2.402   0.107 -2.0610 -0.5778 -1.0556
 4228SOL    HW316685   1.111   2.347  -0.033 -1.1623 -3.7104  0.1882
 4228SOL    MW416686   1.131   2.345   0.052  0.6224  0.6991 -1.0989
 4229SOL     OW16687   4.229   0.427   2.341 -0.3665  0.0625 -0.3607
 4229SOL    HW216688   4.161   0.368   2.375  1.1332 -2.0349 -0.7781
 4229SOL    HW316689   4.234   0.497   2.406 -2.6563  0.1107 -0.1519
 4229SOL    MW416690   4.220   0.428   2.354  0.0994 -0.3814 -0.3056
 4230SOL     OW16691   3.448   1.382   2.010  0.6098 -0.1868 -0.1169
 4230SOL    HW216692   3.535   1.416   1.991  0.2752 -0.4628 -2.4313
 4230SOL    HW316693   3.462   1.291   2.034  1.3308  0.8714  4.2983
 4230SOL    MW416694   3.461   1.375   2.011  0.2053  1.1127 -0.5941
 4231SOL     OW16695   4.867   0.938   3.853 -0.2005  0.2550 -0.1944
 4231SOL    HW216696   4.829   0.917   3.768 -1.4691  1.6604 -0.0179
 4231SOL    HW316697   4.944   0.882   3.860 -0.4161 -0.3123 -2.0032
 4231SOL    MW416698   4.872   0.928   3.843  0.1626  0.1592  0.2732
 4232SOL     OW16699   5.554   2.920   5.898 -0.1213 -0.1757 -0.1457
 4232SOL    HW216700   5.546   2.872   5.981  0.5699  0.2326  0.1630
 4232SOL    HW316701   5.480   2.889   5.846 -0.4704 -0.5665  0.5604
 4232SOL    MW416702   5.543   2.909   5.902 -0.1292 -0.4001 -0.1118
 4233SOL     OW16703   0.746   3.144   5.590  0.3619  0.2247 -0.1899
 4233SOL    HW216704   0.677   3.195   5.634 -0.7499 -1.3956  0.0158
 4233SOL    HW316705   0.737   3.168   5.497  1.4185  2.1510  0.1518
 4233SOL    MW416706   0.735   3.154   5.583  0.4751 -0.4646 -0.1570
 4234SOL     OW16707   6.079   6.107   4.236 -0.3613  0.0010  0.9683
 4234SOL    HW216708   6.071   6.196   4.201 -0.4783 -0.3068  0.1669
 4234SOL    HW316709   6.171   6.084   4.223  0.5220  1.1693  4.2076
 4234SOL    MW416710   6.090   6.116   4.229 -0.5700 -0.4234  0.0192
 4235SOL     OW16711   0.339   0.912   4.839 -0.3150  0.1354  0.9946
 4235SOL    HW216712   0.268   0.880   4.783  0.1559 -2.0131  1.5553
 4235SOL    HW316713   0.293   0.963   4.907 -1.1289  0.3775  0.2878
 4235SOL    MW416714   0.323   0.915   4.841 -0.1817 -0.0540  0.3849
 4236SOL     OW16715   1.205   3.596   2.099  0.4684  0.0010 -0.0967
 4236SOL    HW216716   1.206   3.684   2.136 -1.7000 -0.7310  2.0027
 4236SOL    HW316717   1.202   3.538   2.175 -0.5600 -1.7742 -1.4070
 4236SOL    MW416718   1.205   3.600   2.114  0.3134 -0.1783 -0.4556
 4237SOL     OW16719   5.824   1.975   6.109 -0.6127 -0.3129  0.1597
 4237SOL    HW216720   5.916   1.981   6.135 -0.7010 -0.7593  0.5936
 4237SOL    HW316721   5.827   1.938   6.021 -0.3616 -0.0534  0.0585
 4237SOL    MW416722   5.837   1.971   6.101  0.4144 -0.4277 -0.7523
 4238SOL     OW16723   3.070   5.118   3.379 -0.2808  0.8348  0.0311
 4238SOL    HW216724   3.021   5.153   3.305  1.0830  0.4785 -1.0894
 4238SOL    HW316725   3.156   5.160   3.373  0.1151  0.1810  0.9282
 4238SOL    MW416726   3.075   5.128   3.368 -0.1570 -0.6502  0.1631
 4239SOL     OW16727   5.814   6.040   4.081  0.0611 -0.4038  0.0657
 4239SOL    HW216728   5.803   6.090   4.162  0.8811  0.9326 -0.6260
 4239SOL    HW316729   5.908   6.043   4.063  0.3667 -3.2939  0.6483
 4239SOL    MW416730   5.825   6.047   4.089 -0.0201  0.3712 -0.1432
 4240SOL     OW16731   3.111   5.369   3.542  0.1459 -0.4674  0.2082
 4240SOL    HW216732   3.160   5.315   3.604 -0.7934 -0.5099  0.9363
 4240SOL    HW316733   3.046   5.309   3.506 -1.0156  0.1922  1.1441
 4240SOL    MW416734   3.109   5.354   3.545  0.0484 -0.0902 -0.0298
 4241SOL     OW16735   5.124   2.155   5.113 -0.2273 -0.1805 -0.4202
 4241SOL    HW216736   5.165   2.125   5.194 -1.9983  0.3918  0.7602
 4241SOL    HW316737   5.067   2.228   5.141  0.0128  0.8135 -2.3747
 4241SOL    MW416738   5.122   2.161   5.128  0.6547 -0.0433  0.3310
 4242SOL     OW16739   4.156   3.493   1.253  0.0173  0.0755 -0.2295
 4242SOL    HW216740   4.212   3.457   1.184 -0.5933  0.0663 -0.7260
 4242SOL    HW316741   4.210   3.561   1.295 -0.1601  1.2241 -1.7712
 4242SOL    MW416742   4.170   3.497   1.250  0.1815 -0.1035  0.4430
 4243SOL     OW16743   5.331   3.297   3.289 -0.4745 -0.3031  0.1401
 4243SOL    HW216744   5.315   3.391   3.293 -0.3993 -0.2454 -0.6274
 4243SOL    HW316745   5.244   3.258   3.288 -0.5601 -0.1368 -1.2637
 4243SOL    MW416746   5.318   3.304   3.289 -0.1323  0.1126 -0.0281
 4244SOL     OW16747   3.333   5.395   3.197  0.0700  0.1890 -0.1956
 4244SOL    HW216748   3.298   5.328   3.256  0.1829 -0.1276 -0.4873
 4244SOL    HW316749   3.258   5.421   3.143  0.5689 -1.5531 -1.8395
 4244SOL    MW416750   3.319   5.390   3.198  0.1756  0.5347 -0.4920
 4245SOL     OW16751   5.504   5.108   5.583 -0.6492  0.7623 -0.8163
 4245SOL    HW216752   5.520   5.178   5.647 -1.0921 -0.1198  0.2809
 4245SOL    HW316753   5.431   5.059   5.619  0.2884 -0.8746 -1.0695
 4245SOL    MW416754   5.496   5.111   5.596 -0.0569 -0.5074 -0.2456
 4246SOL     OW16755   5.782   4.427   3.077 -0.3677  0.4612 -0.5395
 4246SOL    HW216756   5.796   4.335   3.103  0.1346 -0.3851 -3.4528
 4246SOL    HW316757   5.700   4.451   3.119 -1.3544 -1.8879 -0.9629
 4246SOL    MW416758   5.773   4.418   3.086 -0.0410 -0.3647 -0.5706
 4247SOL     OW16759   3.925   5.853   4.852 -0.1204  0.3477 -0.7067
 4247SOL    HW216760   3.908   5.790   4.782 -0.1944 -0.1827 -0.2225
 4247SOL    HW316761   3.863   5.828   4.921  1.1183 -0.2253  0.2309
 4247SOL    MW416762   3.914   5.841   4.852 -0.2406  0.2428 -0.2156
 4248SOL     OW16763   5.740   1.685   1.537  0.0593  0.0566  0.5334
 4248SOL    HW216764   5.825   1.726   1.523 -0.5144  1.1101  0.0337
 4248SOL    HW316765   5.691   1.704   1.457 -0.5152 -0.8872  0.6462
 4248SOL    MW416766   5.745   1.693   1.524  0.3427  0.0163  0.5948
 4249SOL     OW16767   2.243   4.062   5.435 -0.0854 -0.2137  0.5474
 4249SOL    HW216768   2.183   3.998   5.472 -0.1815  0.0821  0.9132
 4249SOL    HW316769   2.279   4.020   5.357 -2.0469  0.2481 -0.6487
 4249SOL    MW416770   2.240   4.048   5.430  0.3998 -0.0906  0.0757
 4250SOL     OW16771   0.265   3.655   3.061  0.3479 -0.5020  0.6470
 4250SOL    HW216772   0.179   3.686   3.090  0.0719 -1.0489  0.4254
 4250SOL    HW316773   0.259   3.560   3.066  0.6151 -0.5756 -0.3152
 4250SOL    MW416774   0.253   3.646   3.066  0.2802  0.6470  0.1195
 4251SOL     OW16775   6.050   0.485   4.205 -0.2741  0.7448 -0.0732
 4251SOL    HW216776   6.018   0.491   4.115 -0.6144  1.1146  0.0676
 4251SOL    HW316777   6.143   0.506   4.198 -0.5583  2.0986 -0.1850
 4251SOL    MW416778   6.058   0.489   4.192  0.9606 -0.5401  0.0150
 4252SOL     OW16779   5.364   5.737   1.452  0.2236  0.5672  0.3640
 4252SOL    HW216780   5.375   5.808   1.515 -0.3634  1.0000 -0.0093
 4252SOL    HW316781   5.429   5.754   1.384  0.0327  0.7888  0.2375
 4252SOL    MW416782   5.374   5.749   1.451 -0.0536 -0.1510 -0.2926
 4253SOL     OW16783   1.141   0.820   0.567  0.6133 -0.1375  0.1681
 4253SOL    HW216784   1.102   0.763   0.634  0.4253 -1.0481 -0.6843
 4253SOL    HW316785   1.119   0.777   0.484  0.1815  1.3790 -0.5264
 4253SOL    MW416786   1.133   0.807   0.565  0.3522 -0.1902  0.0509
 4254SOL     OW16787   1.812   2.790   2.627  0.3063  0.2034 -0.7650
 4254SOL    HW216788   1.790   2.883   2.624  1.2044  0.5710  1.6291
 4254SOL    HW316789   1.755   2.750   2.562 -0.5259  2.3466 -1.4436
 4254SOL    MW416790   1.802   2.797   2.618  0.6763  0.2362 -0.9250
 4255SOL     OW16791   5.219   5.012   0.436 -0.2306  0.2141  0.0577
 4255SOL    HW216792   5.136   4.964   0.439 -0.6238  0.9198  1.5143
 4255SOL    HW316793   5.211   5.069   0.359 -1.8075  1.4409  1.0760
 4255SOL    MW416794   5.207   5.013   0.426 -0.8146  0.4996 -0.2096
 4256SOL     OW16795   5.169   2.350   3.148  0.4085 -0.7673 -0.5704
 4256SOL    HW216796   5.147   2.279   3.208  0.5144  0.1623  0.6292
 4256SOL    HW316797   5.226   2.310   3.083  0.6254 -1.7349  0.1864
 4256SOL    MW416798   5.173   2.336   3.147  0.0618  0.8194  0.1128
 4257SOL     OW16799   4.758   0.404   6.372 -0.1787 -0.5079  0.0078
 4257SOL    HW216800   4.827   0.411   6.439 -0.4834 -1.2223  0.4093
 4257SOL    HW316801   4.693   0.470   6.398 -0.8015 -1.4779  1.0574
 4257SOL    MW416802   4.758   0.414   6.384 -0.3075 -0.2885 -0.1512
 4258SOL     OW16803   5.806   0.039   3.273 -0.1838  0.2005 -0.6969
 4258SOL    HW216804   5.807   0.133   3.254 -0.4688 -0.0199 -1.8732
 4258SOL    HW316805   5.718   0.010   3.249  0.5972 -0.7792 -2.6048
 4258SOL    MW416806   5.795   0.048   3.267 -0.2973  0.1681  0.7064
 4259SOL     OW16807   4.145   6.102   4.111 -0.3054 -0.2637 -0.1681
 4259SOL    HW216808   4.075   6.134   4.169  0.6047 -0.0188  0.8151
 4259SOL    HW316809   4.127   6.144   4.027 -1.3514 -0.2161  0.0640
 4259SOL    MW416810   4.133   6.111   4.107  0.2282  0.4283 -0.7228
 4260SOL     OW16811   3.324   1.052   1.468 -0.0481  0.2554 -0.4084
 4260SOL    HW216812   3.358   1.060   1.557  0.5683  1.4175 -0.7238
 4260SOL    HW316813   3.254   0.987   1.474  0.5601 -0.3106  0.7516
 4260SOL    MW416814   3.319   1.045   1.481  0.1230  0.0574 -0.0967
 4261SOL     OW16815   2.158   4.964   0.444 -0.2770 -0.1489 -0.5594
 4261SOL    HW216816   2.243   4.938   0.480 -0.2561 -0.3341 -0.7385
 4261SOL    HW316817   2.096   4.901   0.479 -0.4537  0.3689  0.0916
 4261SOL    MW416818   2.161   4.953   0.453  0.1075  0.3263  0.5170
 4262SOL     OW16819   2.764   1.306   2.994  0.1465 -0.7309 -0.5467
 4262SOL    HW216820   2.822   1.369   3.036 -0.1008 -0.5394 -0.4894
 4262SOL    HW316821   2.744   1.243   3.062 -0.1146 -0.5172 -0.4243
 4262SOL    MW416822   2.769   1.306   3.008  0.0081  0.5010 -0.5006
 4263SOL     OW16823   3.892   6.173   0.424 -0.6214 -0.8085  0.5127
 4263SOL    HW216824   3.858   6.155   0.512 -1.2235 -1.2156  0.2039
 4263SOL    HW316825   3.987   6.173   0.435 -0.6593  2.0026  1.7198
 4263SOL    MW416826   3.900   6.170   0.437  0.7264 -0.4762  0.0508
 4264SOL     OW16827   2.202   0.443   1.829 -0.0236  0.0141  0.0564
 4264SOL    HW216828   2.190   0.360   1.874 -0.6520  0.2510  0.3326
 4264SOL    HW316829   2.280   0.430   1.774  0.1480 -0.6024  0.4412
 4264SOL    MW416830   2.211   0.431   1.828  0.0383 -0.0824  0.2673
 4265SOL     OW16831   2.294   2.376   5.568  0.3952  0.1369 -0.1057
 4265SOL    HW216832   2.343   2.311   5.620  3.5625  1.0656 -1.7106
 4265SOL    HW316833   2.283   2.334   5.483  1.2000  1.1150 -0.7081
 4265SOL    MW416834   2.299   2.362   5.564 -0.4495 -0.8218  0.0675
 4266SOL     OW16835   2.466   6.309   0.352 -0.6992 -0.1577 -0.5871
 4266SOL    HW216836   2.480   6.403   0.355 -0.2645 -0.1844 -1.5948
 4266SOL    HW316837   2.408   6.295   0.277  1.2192 -0.8961 -1.9966
 4266SOL    MW416838   2.460   6.319   0.343  0.0456 -0.0191 -0.5369
 4267SOL     OW16839   0.824   3.170   6.346  0.6388 -0.0511 -0.1417
 4267SOL    HW216840   0.747   3.196   6.295  0.7393 -1.5784 -1.1166
 4267SOL    HW316841   0.895   3.165   6.282  1.2509 -0.0084  0.5178
 4267SOL    MW416842   0.823   3.173   6.331 -0.1962 -0.0968  0.3768
 4268SOL     OW16843   2.106   0.529   4.746  0.5078 -0.1124  0.0301
 4268SOL    HW216844   2.041   0.479   4.796 -1.2834  1.0318 -1.0477
 4268SOL    HW316845   2.137   0.468   4.679 -0.7370 -0.1896 -0.4957
 4268SOL    MW416846   2.102   0.514   4.744  0.5626 -0.1524  0.8096
 4269SOL     OW16847   0.215   2.045   5.930 -0.1313 -0.2299 -0.0206
 4269SOL    HW216848   0.195   2.136   5.951  1.3170 -0.0896  0.8917
 4269SOL    HW316849   0.135   1.997   5.950  0.0037  0.4368  2.3822
 4269SOL    MW416850   0.202   2.051   5.935  0.3257 -0.8486  0.3294
 4270SOL     OW16851   6.205   6.176   0.052  0.0763  0.1057  0.5287
 4270SOL    HW216852   6.128   6.190   0.107 -0.6495 -0.0845 -0.3983
 4270SOL    HW316853   6.193   6.087   0.017  0.9094 -0.0675  0.6652
 4270SOL    MW416854   6.193   6.166   0.054  0.3482  0.0812 -0.2720
 4271SOL     OW16855   5.664   3.483   3.515  0.3536 -0.4496 -0.2842
 4271SOL    HW216856   5.593   3.544   3.495  1.5361  0.8949 -0.4452
 4271SOL    HW316857   5.644   3.405   3.463 -0.1674  0.4959 -1.5280
 4271SOL    MW416858   5.652   3.481   3.506 -0.3392 -0.7481  0.1775
 4272SOL     OW16859   1.306   4.135   4.322  0.4811  0.1103  0.6820
 4272SOL    HW216860   1.289   4.116   4.230  1.9358  1.7829 -0.0100
 4272SOL    HW316861   1.268   4.062   4.370 -0.5938 -0.6445 -1.2191
 4272SOL    MW416862   1.299   4.123   4.316 -0.7637 -0.0698  0.0523
 4273SOL     OW16863   3.346   0.356   4.474  0.1712 -0.1865  0.4538
 4273SOL    HW216864   3.411   0.298   4.513  0.8796  0.8834  0.9170
 4273SOL    HW316865   3.276   0.298   4.445  2.8016 -1.8401 -3.2535
 4273SOL    MW416866   3.345   0.341   4.476 -0.6354 -0.3316  0.0327
 4274SOL     OW16867   3.828   4.001   1.545  0.9217 -0.7222 -0.4176
 4274SOL    HW216868   3.806   3.993   1.453 -1.4271  1.0941 -0.1226
 4274SOL    HW316869   3.747   3.977   1.592  2.1905 -2.0627  1.2267
 4274SOL    MW416870   3.814   3.997   1.539 -0.4343 -0.2803  0.1015
 4275SOL     OW16871   5.241   4.023   3.350 -0.1790  0.0104 -0.4136
 4275SOL    HW216872   5.188   3.943   3.347 -1.0470  0.5895 -1.7681
 4275SOL    HW316873   5.314   4.006   3.291  0.5795 -0.3767  0.6023
 4275SOL    MW416874   5.243   4.010   3.342  0.0010 -0.2715 -0.4078
 4276SOL     OW16875   4.861   2.109   0.749 -0.0771 -0.1967 -0.5536
 4276SOL    HW216876   4.776   2.153   0.737 -0.0758 -0.2126 -0.6177
 4276SOL    HW316877   4.852   2.026   0.703 -0.0782 -0.2631 -0.4351
 4276SOL    MW416878   4.848   2.104   0.742  0.5555  0.1775  0.5035
 4277SOL     OW16879   3.194   2.014   1.388  0.1431  0.1176 -0.2332
 4277SOL    HW216880   3.278   2.004   1.342  0.9120  0.2013  1.1215
 4277SOL    HW316881   3.147   2.080   1.337 -0.2137 -1.7270 -2.5264
 4277SOL    MW416882   3.199   2.021   1.375  0.8119  0.2752  0.2978
 4278SOL     OW16883   5.886   2.067   0.684 -0.5305  0.3470 -0.0306
 4278SOL    HW216884   5.928   2.102   0.605 -1.4934  2.6494  0.3982
 4278SOL    HW316885   5.794   2.091   0.675 -0.8583 -0.3067  1.3141
 4278SOL    MW416886   5.879   2.075   0.672 -0.0960  0.0997  0.2154
 4279SOL     OW16887   4.855   3.082   3.312  0.1501 -0.0379 -0.3211
 4279SOL    HW216888   4.851   3.048   3.401  0.3677  0.4801 -0.1082
 4279SOL    HW316889   4.827   3.009   3.256  0.2572 -0.4379  0.1502
 4279SOL    MW416890   4.851   3.068   3.316 -0.3663 -0.3891  0.2387
 4280SOL     OW16891   0.586   1.461   4.533  0.4196  0.3725  0.0569
 4280SOL    HW216892   0.664   1.471   4.588  1.4444 -1.8840 -0.8312
 4280SOL    HW316893   0.514   1.489   4.588  1.6296  0.3454  1.7583
 4280SOL    MW416894   0.587   1.466   4.547  0.2207  0.6737 -0.0253
 4281SOL     OW16895   3.253   1.717   0.955  0.7119  0.0525  0.4173
 4281SOL    HW216896   3.225   1.626   0.947  1.5165 -0.4046  2.2496
 4281SOL    HW316897   3.268   1.746   0.865  2.1959 -2.1954 -0.1343
 4281SOL    MW416898   3.251   1.709   0.942 -0.6442 -0.0232 -0.3289
 4282SOL     OW16899   1.903   4.336   4.226  0.4469  0.0478  0.2031
 4282SOL    HW216900   1.818   4.296   4.245 -0.0318  0.8656 -0.1743
 4282SOL    HW316901   1.903   4.350   4.132  1.1270 -0.2068  0.1584
 4282SOL    MW416902   1.891   4.332   4.216 -0.7669 -0.3681 -0.3118
 4283SOL     OW16903   2.931   1.463   4.927 -0.3815  0.4412 -0.1063
 4283SOL    HW216904   2.874   1.509   4.865  0.5477 -0.8444 -2.0250
 4283SOL    HW316905   2.923   1.371   4.902  0.0218 -0.1399  1.7553
 4283SOL    MW416906   2.922   1.457   4.915  0.0774  0.4316  0.4081
 4284SOL     OW16907   2.155   3.102   4.555 -0.4106  0.1864  0.2663
 4284SOL    HW216908   2.102   3.164   4.505 -2.1912  0.2666  2.1212
 4284SOL    HW316909   2.103   3.083   4.632  0.8813 -2.2802  0.6288
 4284SOL    MW416910   2.142   3.108   4.558 -0.1268 -0.0870 -0.0774
 4285SOL     OW16911   2.788   4.495   5.302  0.3680  0.5541 -0.2633
 4285SOL    HW216912   2.854   4.484   5.370  0.0308  0.4079  0.0443
 4285SOL    HW316913   2.770   4.589   5.301 -0.7181  0.3757  0.9004
 4285SOL    MW416914   2.794   4.506   5.310 -0.3398  0.4634 -0.2453
 4286SOL     OW16915   2.643   0.147   5.720 -0.0855 -0.2470  0.1521
 4286SOL    HW216916   2.653   0.100   5.802  1.0319 -1.0877 -0.4394
 4286SOL    HW316917   2.579   0.216   5.739 -2.7992 -2.7552  0.7109
 4286SOL    MW416918   2.636   0.150   5.733  0.1952 -0.2697 -0.4911
 4287SOL     OW16919   3.378   5.766   1.769 -0.2470  0.3753  0.3660
 4287SOL    HW216920   3.332   5.690   1.805  0.6849 -2.2099 -3.3870
 4287SOL    HW316921   3.333   5.785   1.687  0.1235  3.4374  0.7549
 4287SOL    MW416922   3.366   5.759   1.763  0.5201 -0.0071 -0.2850
 4288SOL     OW16923   6.261   3.649   5.897  0.1132  0.9488  0.1253
 4288SOL    HW216924   6.268   3.572   5.841 -1.0437 -0.1069  1.3741
 4288SOL    HW316925   6.339   3.645   5.953  0.5557  1.2422 -0.4628
 4288SOL    MW416926   6.273   3.638   5.897  0.1880 -0.0535 -0.6173
 4289SOL     OW16927   2.195   4.909   1.596 -0.2048 -0.2664  0.1983
 4289SOL    HW216928   2.107   4.916   1.632 -0.1196  0.4337  0.2769
 4289SOL    HW316929   2.194   4.827   1.546 -0.1922 -1.5616  2.1863
 4289SOL    MW416930   2.183   4.899   1.594  0.0404  0.0052  0.2010
 4290SOL     OW16931   0.931   0.486   4.563 -0.0031  0.3804  0.0476
 4290SOL    HW216932   0.854   0.496   4.506 -1.0306  1.0766  1.4874
 4290SOL    HW316933   0.960   0.576   4.579 -0.3678  0.2844  1.4082
 4290SOL    MW416934   0.924   0.499   4.558 -0.8187 -0.1817  0.3109
 4291SOL     OW16935   3.674   3.850   6.421  0.5735 -0.0647 -0.2359
 4291SOL    HW216936   3.704   3.764   6.390  0.8969  0.1336 -0.4861
 4291SOL    HW316937   3.634   3.890   6.343 -0.6558 -0.4563  0.1752
 4291SOL    MW416938   3.673   3.844   6.406 -0.0235  0.2431 -0.0906
 4292SOL     OW16939   1.684   0.416   6.353  0.6351 -0.0742  0.5702
 4292SOL    HW216940   1.691   0.511   6.342 -0.8803  0.1817  1.5774
 4292SOL    HW316941   1.592   0.396   6.337  0.8151 -1.3088  0.9099
 4292SOL    MW416942   1.673   0.426   6.349  0.1589 -0.5815  0.2710
 4293SOL     OW16943   1.065   4.231   4.113  0.1296 -0.3723  0.3566
 4293SOL    HW216944   1.019   4.166   4.165 -0.2323 -1.0075 -0.7153
 4293SOL    HW316945   0.997   4.289   4.080  0.0165 -1.3466 -1.2795
 4293SOL    MW416946   1.050   4.230   4.115  0.0474  0.1976  0.0735
 4294SOL     OW16947   5.553   5.863   4.329  0.0303 -0.4201  0.7102
 4294SOL    HW216948   5.471   5.829   4.365 -0.0883 -1.1413 -0.2218
 4294SOL    HW316949   5.617   5.794   4.345 -0.2001 -1.1056 -1.1342
 4294SOL    MW416950   5.551   5.850   4.336 -0.6339 -0.1500  0.0154
 4295SOL     OW16951   5.944   4.588   1.422  0.0784  0.4015 -0.4599
 4295SOL    HW216952   5.903   4.566   1.339 -0.9844 -0.3851  0.2504
 4295SOL    HW316953   5.931   4.511   1.476  0.5072  1.0057  0.5302
 4295SOL    MW416954   5.937   4.575   1.418  0.1163 -0.1386  0.6113
 4296SOL     OW16955   0.333   1.636   4.987 -0.0323 -0.4172  0.4339
 4296SOL    HW216956   0.364   1.658   4.899  2.4567 -1.9586  0.8381
 4296SOL    HW316957   0.336   1.719   5.035 -0.4987  0.2503 -0.6606
 4296SOL    MW416958   0.337   1.650   4.982 -0.3335 -0.1774  0.8069
 4297SOL     OW16959   3.894   1.507   5.892 -0.3992 -0.1683  0.1342
 4297SOL    HW216960   3.954   1.434   5.907 -1.4685 -0.8280  1.3122
 4297SOL    HW316961   3.824   1.495   5.956 -1.7324  0.6565 -1.1128
 4297SOL    MW416962   3.892   1.496   5.902  0.2697  0.1835 -0.5972
 4298SOL     OW16963   4.077   4.774   1.212  0.1239 -0.3283 -0.0231
 4298SOL    HW216964   4.161   4.728   1.215  0.5990  0.5559  1.1507
 4298SOL    HW316965   4.037   4.755   1.297  0.2427  1.2279  0.4017
 4298SOL    MW416966   4.083   4.765   1.223 -0.4059  0.4209 -0.3010
 4299SOL     OW16967   2.024   4.070   5.220  0.1747  0.2031  0.1508
 4299SOL    HW216968   2.091   4.065   5.288  0.4782  1.3815 -0.0367
 4299SOL    HW316969   1.968   4.144   5.246 -1.1596 -0.8456  0.3827
 4299SOL    MW416970   2.025   4.079   5.232  0.0331  0.5832  0.1321
 4300SOL     OW16971   2.308   5.913   4.313 -0.2902 -0.2679 -0.2282
 4300SOL    HW216972   2.386   5.870   4.280 -1.6307 -0.6919 -3.2064
 4300SOL    HW316973   2.274   5.854   4.380  3.3343  1.3144  3.4681
 4300SOL    MW416974   2.314   5.900   4.318 -0.0759 -0.0051 -0.3997
 4301SOL     OW16975   3.827   0.508   4.622  0.1281  0.9295 -0.3946
 4301SOL    HW216976   3.896   0.575   4.617 -0.3409  1.4060 -0.5462
 4301SOL    HW316977   3.775   0.533   4.698 -0.7522  1.4254 -1.1433
 4301SOL    MW416978   3.830   0.520   4.631  0.0665 -0.3357 -0.5093
 4302SOL     OW16979   0.949   4.206   4.659  0.3384  0.7705 -0.1076
 4302SOL    HW216980   1.032   4.159   4.649 -0.2143 -0.6283  1.4724
 4302SOL    HW316981   0.939   4.255   4.578  1.9206 -0.2949 -0.9869
 4302SOL    MW416982   0.959   4.206   4.647  0.1490  0.4376  0.2311
 4303SOL     OW16983   6.080   4.825   2.099  0.0829 -0.5641  0.0311
 4303SOL    HW216984   6.169   4.802   2.072  0.1135  0.6465 -0.9855
 4303SOL    HW316985   6.039   4.741   2.119  1.2626 -1.1935 -0.0789
 4303SOL    MW416986   6.087   4.811   2.098 -0.5258  0.3726  0.3245
 4304SOL     OW16987   4.227   6.300   4.457  0.1930  0.0767  0.1203
 4304SOL    HW216988   4.186   6.366   4.401 -0.9191 -0.1244  0.6596
 4304SOL    HW316989   4.175   6.301   4.537  1.1618 -0.3185  0.7743
 4304SOL    MW416990   4.215   6.309   4.460  0.1866  0.0708 -0.4210
 4305SOL     OW16991   6.142   4.917   2.448 -0.0590 -0.0733 -0.2875
 4305SOL    HW216992   6.173   4.869   2.372  0.5727 -0.3100  0.1117
 4305SOL    HW316993   6.062   4.962   2.418  0.1875 -0.1585 -1.0774
 4305SOL    MW416994   6.135   4.917   2.434 -0.4304  0.0607 -0.4602
 4306SOL     OW16995   1.131   4.360   3.058  0.4244 -0.5827 -0.7931
 4306SOL    HW216996   1.221   4.366   3.027  0.3924  0.9498 -0.6572
 4306SOL    HW316997   1.138   4.342   3.151  0.5519 -1.9562 -1.0474
 4306SOL    MW416998   1.144   4.358   3.066 -0.6567 -0.1797  0.0024
 4307SOL     OW16999   5.073   5.148   5.495 -0.0115 -0.4525  0.2162
 4307SOL    HW217000   4.992   5.195   5.519 -0.9477 -2.0462  0.3645
 4307SOL    HW317001   5.042   5.073   5.445  1.5768  0.0405 -1.5812
 4307SOL    MW417002   5.058   5.144   5.492  0.0213  0.6676 -0.1251
 4308SOL     OW17003   5.939   5.426   4.375  0.5920 -0.0484  0.2198
 4308SOL    HW217004   6.010   5.475   4.333  0.4009  1.1478  1.2241
 4308SOL    HW317005   5.945   5.450   4.467  1.1660 -2.8070  0.9792
 4308SOL    MW417006   5.949   5.436   4.381 -0.1700  0.1975 -0.0551
 4309SOL     OW17007   2.054   4.012   0.013 -0.1532  0.1899 -0.7310
 4309SOL    HW217008   2.013   3.933   0.046  0.4328  0.2233  0.1228
 4309SOL    HW317009   2.073   3.994  -0.079 -1.0580 -0.2263 -0.8402
 4309SOL    MW417010   2.051   3.999   0.005  0.1104 -0.0895 -0.2478
 4310SOL     OW17011   0.506   4.037   6.283 -0.0068 -0.6161 -0.2157
 4310SOL    HW217012   0.460   4.100   6.337 -1.5415 -1.5326 -0.4057
 4310SOL    HW317013   0.581   4.085   6.248 -1.0174  1.0190 -0.1968
 4310SOL    MW417014   0.510   4.051   6.286 -0.3598  0.3006  0.1209
 4311SOL     OW17015   3.513   2.368   4.675  0.5889  0.0244 -0.2390
 4311SOL    HW217016   3.555   2.406   4.752  1.6539 -0.8581 -0.3549
 4311SOL    HW317017   3.421   2.358   4.700  0.8549  0.0410  0.8103
 4311SOL    MW417018   3.507   2.371   4.689 -0.1348  0.0408  0.8220
 4312SOL     OW17019   2.440   3.999   0.946 -0.3943  0.0989  0.0027
 4312SOL    HW217020   2.374   4.047   0.996 -0.4599  2.7909 -2.3562
 4312SOL    HW317021   2.524   4.034   0.977 -0.3230 -0.0006 -0.0770
 4312SOL    MW417022   2.442   4.010   0.957  0.3209 -0.3711 -0.3304
 4313SOL     OW17023   1.996   3.333   4.514 -0.6604  0.5404  0.5244
 4313SOL    HW217024   1.987   3.373   4.428 -0.8378 -1.9618 -0.7141
 4313SOL    HW317025   1.910   3.345   4.555 -1.2837 -0.1121 -0.5413
 4313SOL    MW417026   1.983   3.340   4.508  0.5067 -0.2724 -0.1692
 4314SOL     OW17027   3.350   3.367   4.830 -0.0715  0.3860  0.4746
 4314SOL    HW217028   3.431   3.322   4.853 -0.7409 -0.2447  1.6899
 4314SOL    HW317029   3.370   3.460   4.840  0.1690  0.1948  2.0304
 4314SOL    MW417030   3.363   3.373   4.834 -0.2040 -0.3075 -0.3449
 4315SOL     OW17031   0.335   2.656   5.662 -0.8761 -0.0600 -0.0172
 4315SOL    HW217032   0.394   2.583   5.642  0.0938  0.9922 -1.0853
 4315SOL    HW317033   0.256   2.636   5.611 -0.9656 -0.8136  0.3990
 4315SOL    MW417034   0.332   2.644   5.652  0.0494 -0.1269 -0.7616
 4316SOL     OW17035   4.872   5.584   3.734 -0.3088 -0.2623 -0.0821
 4316SOL    HW217036   4.856   5.494   3.705  0.2013 -0.1214 -0.8418
 4316SOL    HW317037   4.792   5.631   3.711  0.2269 -0.0691 -1.6791
 4316SOL    MW417038   4.859   5.578   3.727  0.2998  0.6196  0.2718
 4317SOL     OW17039   5.636   1.387   4.706 -0.2417 -0.5401  0.2846
 4317SOL    HW217040   5.720   1.343   4.701  0.4546  0.8339 -0.8027
 4317SOL    HW317041   5.571   1.319   4.688  0.6713 -1.4648  0.4513
 4317SOL    MW417042   5.638   1.372   4.703  0.1831 -0.0550  0.2490
 4318SOL     OW17043   5.266   6.189   2.447 -0.8226  0.2329 -0.4767
 4318SOL    HW217044   5.297   6.273   2.481 -0.9544  0.2247 -0.3377
 4318SOL    HW317045   5.258   6.203   2.352  0.9307 -0.1685 -0.7223
 4318SOL    MW417046   5.269   6.202   2.439  0.2420  0.3252  0.2950
 4319SOL     OW17047   4.467   4.930   0.427  0.0661  0.1357  0.4240
 4319SOL    HW217048   4.469   4.935   0.523  1.5141 -0.2585  0.4456
 4319SOL    HW317049   4.443   5.018   0.399  0.0570  0.3723  1.1554
 4319SOL    MW417050   4.464   4.942   0.436  0.9001 -0.2369 -0.0519
 4320SOL     OW17051   2.018   1.877   4.890  0.1564  0.3842 -0.0943
 4320SOL    HW217052   2.072   1.911   4.961  0.1398 -0.4203  0.3061
 4320SOL    HW317053   2.073   1.813   4.846  0.5845  1.6921 -1.5446
 4320SOL    MW417054   2.032   1.873   4.894 -0.4081 -0.3746 -0.1188
 4321SOL     OW17055   2.050   4.285   1.371 -0.4411  0.0393  0.0006
 4321SOL    HW217056   2.061   4.256   1.461  0.5841  1.5164  0.3832
 4321SOL    HW317057   1.996   4.364   1.377  0.9645  1.0864 -0.4755
 4321SOL    MW417058   2.045   4.292   1.384 -0.0934  0.1282  0.2102
 4322SOL     OW17059   6.077   1.066   2.512 -0.0523  0.4492  0.0170
 4322SOL    HW217060   6.051   1.117   2.436 -0.9431 -0.5033 -0.3380
 4322SOL    HW317061   6.075   1.128   2.585 -1.9942  0.7499 -0.2352
 4322SOL    MW417062   6.074   1.081   2.512 -0.0052 -0.2457 -0.3426
 4323SOL     OW17063   2.632   3.056   1.571  0.0779 -0.4496 -0.1104
 4323SOL    HW217064   2.701   3.073   1.635  0.6607 -0.7114 -0.6537
 4323SOL    HW317065   2.586   3.139   1.562  0.5697 -0.1679 -0.0336
 4323SOL    MW417066   2.635   3.069   1.578 -0.4906 -0.0661 -0.0812
 4324SOL     OW17067   5.978   5.985   3.692 -0.2506  0.4803 -0.4419
 4324SOL    HW217068   6.046   6.026   3.639 -0.3031  1.2040  0.0309
 4324SOL    HW317069   5.946   5.912   3.639  0.9652  0.0602 -0.6333
 4324SOL    MW417070   5.983   5.980   3.678  0.5639  0.1576  0.6171
 4325SOL     OW17071   4.816   2.970   0.015  0.0780 -0.0064 -0.3367
 4325SOL    HW217072   4.736   2.919   0.003 -0.1050 -0.0266  0.8585
 4325SOL    HW317073   4.788   3.061   0.003  0.1999 -0.1046 -1.4516
 4325SOL    MW417074   4.802   2.975   0.012  0.5018 -0.4466  0.2702
 4326SOL     OW17075   3.538   3.294   6.394  0.4708 -0.0354  0.0922
 4326SOL    HW217076   3.461   3.294   6.337  0.2046 -3.0025  0.3037
 4326SOL    HW317077   3.519   3.362   6.459 -2.7451 -1.5903  1.0326
 4326SOL    MW417078   3.525   3.303   6.395 -0.2680  0.2428 -0.1874
 4327SOL     OW17079   1.394   0.581   5.855  0.0236  0.1571  0.0874
 4327SOL    HW217080   1.412   0.644   5.784  0.3143  0.5238  0.4803
 4327SOL    HW317081   1.337   0.515   5.815  0.5653  0.1063 -0.6181
 4327SOL    MW417082   1.389   0.581   5.840 -0.6194  0.0767 -0.0652
 4328SOL     OW17083   6.174   3.352   6.436 -0.0899  0.3193  0.5864
 4328SOL    HW217084   6.196   3.410   6.364  0.3297  0.2772  0.6819
 4328SOL    HW317085   6.082   3.328   6.420  0.0060  0.2928  0.0591
 4328SOL    MW417086   6.164   3.356   6.425 -0.1845  0.5503 -0.0228
 4329SOL     OW17087   2.634   3.747   5.914  0.3759  0.5849 -0.4532
 4329SOL    HW217088   2.665   3.817   5.856  1.0664  0.3483 -0.3778
 4329SOL    HW317089   2.605   3.678   5.855 -0.5820  1.0409 -0.5334
 4329SOL    MW417090   2.634   3.747   5.898  0.8806  0.0149 -0.0974
 4330SOL     OW17091   1.113   4.574   2.053  0.0719  0.0267  0.4068
 4330SOL    HW217092   1.111   4.554   2.147 -0.6959  0.0837  0.4057
 4330SOL    HW317093   1.025   4.554   2.022  0.5781 -0.8523 -0.4943
 4330SOL    MW417094   1.101   4.569   2.061 -0.2553 -0.2204 -0.4785
 4331SOL     OW17095   3.353   2.226   1.704  0.2115  0.1022 -0.1480
 4331SOL    HW217096   3.360   2.282   1.626 -1.3429 -0.2742 -0.6008
 4331SOL    HW317097   3.434   2.176   1.705  0.2181  0.0267 -1.6189
 4331SOL    MW417098   3.364   2.227   1.694 -0.2237  0.1071  0.6179
 4332SOL     OW17099   5.349   3.817   1.944  0.8192  0.1344 -0.5426
 4332SOL    HW217100   5.380   3.871   2.017 -0.7339 -1.6970  1.6114
 4332SOL    HW317101   5.269   3.861   1.914 -0.1324 -0.5773  0.8386
 4332SOL    MW417102   5.342   3.830   1.949 -0.0075  0.4158  0.2334
 4333SOL     OW17103   1.702   5.831   1.014 -0.2624 -0.0575  0.1398
 4333SOL    HW217104   1.763   5.866   0.949  0.4402 -1.0905  0.2128
 4333SOL    HW317105   1.710   5.890   1.088  0.7959 -0.2582  0.2095
 4333SOL    MW417106   1.711   5.843   1.015  0.0164  0.1281  0.7707
 4334SOL     OW17107   3.226   2.802   1.695 -0.3952  0.5936  0.7226
 4334SOL    HW217108   3.230   2.803   1.790 -1.3753 -1.6802  0.8487
 4334SOL    HW317109   3.314   2.775   1.668 -0.9178 -1.6690  1.1550
 4334SOL    MW417110   3.238   2.799   1.704 -0.3045  0.1141  0.7448
 4335SOL     OW17111   1.464   0.846   0.303 -0.2512 -0.7186 -0.0267
 4335SOL    HW217112   1.406   0.905   0.350 -0.7258 -1.0891 -0.1382
 4335SOL    HW317113   1.551   0.866   0.336 -0.3635  0.2533 -0.2907
 4335SOL    MW417114   1.468   0.856   0.313  0.2308 -0.5881 -0.9881
 4336SOL     OW17115   6.311   2.571   5.621  0.5512 -0.0294 -0.5842
 4336SOL    HW217116   6.370   2.603   5.552  1.8120 -0.3775  0.2886
 4336SOL    HW317117   6.368   2.522   5.680 -0.6298 -0.3543  0.3273
 4336SOL    MW417118   6.326   2.569   5.619  0.8391 -0.1028  0.2447
 4337SOL     OW17119   1.997   4.976   2.149 -1.1152 -0.3621  0.1302
 4337SOL    HW217120   2.033   5.064   2.138 -2.3390  0.1019 -0.4440
 4337SOL    HW317121   2.033   4.946   2.232  0.9004 -0.1413 -0.6063
 4337SOL    MW417122   2.006   4.984   2.159  0.8542  0.2757 -0.1952
 4338SOL     OW17123   4.372   2.883   4.594  0.1192  0.3001  0.1731
 4338SOL    HW217124   4.416   2.898   4.511  0.2162  0.5944  0.2760
 4338SOL    HW317125   4.421   2.811   4.635  0.8174  0.9494  0.5067
 4338SOL    MW417126   4.384   2.875   4.588 -0.1393 -0.2373 -0.0536
 4339SOL     OW17127   4.379   4.760   1.785  0.1718 -0.4182  0.2664
 4339SOL    HW217128   4.374   4.846   1.828 -0.9186 -1.0777  1.5229
 4339SOL    HW317129   4.340   4.699   1.848 -0.8392 -1.5521 -1.3697
 4339SOL    MW417130   4.373   4.764   1.799  0.1812  0.3131  0.5723
 4340SOL     OW17131   0.105   4.795   4.642  0.6302  0.3997  0.4285
 4340SOL    HW217132   0.097   4.736   4.567  0.1020  1.4270 -0.3482
 4340SOL    HW317133   0.200   4.809   4.652  1.0846 -2.9039  2.5506
 4340SOL    MW417134   0.117   4.789   4.634  0.4888  0.1502  0.4602
 4341SOL     OW17135   2.452   0.077   3.564  0.0113  0.0798  0.0249
 4341SOL    HW217136   2.540   0.105   3.586 -0.3468 -0.2563  2.1898
 4341SOL    HW317137   2.464   0.007   3.500  1.4632 -1.1251  1.5129
 4341SOL    MW417138   2.465   0.071   3.558 -0.1624  0.3861  0.8322
 4342SOL     OW17139   5.994   2.282   0.852  0.1197  0.4174  0.3068
 4342SOL    HW217140   5.951   2.241   0.778 -0.2784  1.9778 -0.3622
 4342SOL    HW317141   5.941   2.258   0.928  0.9711 -1.8473  0.2651
 4342SOL    MW417142   5.981   2.274   0.852 -0.3445 -0.2122  0.1920
 4343SOL     OW17143   2.404   2.009   4.161  0.3185  0.0909  0.4003
 4343SOL    HW217144   2.424   1.971   4.076 -0.0532  1.8326 -0.5161
 4343SOL    HW317145   2.369   1.936   4.212 -0.2512 -0.8293 -1.2145
 4343SOL    MW417146   2.402   1.994   4.157 -0.2609  0.2458 -0.1431
 4344SOL     OW17147   5.901   4.674   1.836  0.0902 -0.6336  0.1404
 4344SOL    HW217148   5.884   4.712   1.750  1.0391 -0.6826 -0.0748
 4344SOL    HW317149   5.986   4.631   1.827 -0.2029 -1.3817  0.8592
 4344SOL    MW417150   5.910   4.673   1.823  0.4405  1.0231  0.5738
 4345SOL     OW17151   6.003   4.110   2.452  0.2519  0.7326 -0.0708
 4345SOL    HW217152   6.058   4.145   2.523 -0.1158  1.6387 -0.2099
 4345SOL    HW317153   5.914   4.111   2.488  0.5065 -2.9804  1.0237
 4345SOL    MW417154   5.998   4.115   2.466 -0.3083  0.2135  0.3035
 4346SOL     OW17155   3.718   2.310   4.291  0.1965 -0.2154  0.1584
 4346SOL    HW217156   3.722   2.215   4.295  1.4143 -0.1601  0.9026
 4346SOL    HW317157   3.802   2.339   4.328 -0.4053  1.1554  0.5128
 4346SOL    MW417158   3.730   2.301   4.296 -0.3828  0.3130  0.6564
 4347SOL     OW17159   1.617   0.351   3.817  0.1810  0.1144 -0.1427
 4347SOL    HW217160   1.558   0.368   3.743  1.1783  1.2643 -0.7178
 4347SOL    HW317161   1.627   0.256   3.819 -0.6135  0.0050 -0.8896
 4347SOL    MW417162   1.611   0.341   3.808 -0.0158 -0.3099 -0.0406
 4348SOL     OW17163   4.788   5.154   2.907 -0.6836 -0.1720 -0.6898
 4348SOL    HW217164   4.868   5.193   2.942 -1.4821  0.5015  0.4782
 4348SOL    HW317165   4.814   5.116   2.824  1.1738 -1.2238  0.2953
 4348SOL    MW417166   4.802   5.154   2.901  0.7955  0.3969  0.8823
 4349SOL     OW17167   3.697   1.228   5.501 -0.7201 -0.1746  0.4319
 4349SOL    HW217168   3.635   1.162   5.469 -0.5260 -0.3913  0.4959
 4349SOL    HW317169   3.775   1.216   5.447 -1.1540  0.9108 -0.4595
 4349SOL    MW417170   3.699   1.218   5.490  0.2511 -0.6768  0.2409
 4350SOL     OW17171   5.858   6.177   5.828  0.1459 -0.4680  0.2779
 4350SOL    HW217172   5.813   6.248   5.783  0.5445 -0.1034  0.4492
 4350SOL    HW317173   5.895   6.217   5.906 -2.3330 -1.5142  2.1324
 4350SOL    MW417174   5.857   6.192   5.832  0.1493  0.2712 -0.4008
 4351SOL     OW17175   3.960   5.098   2.422  0.2201  0.2980 -0.8343
 4351SOL    HW217176   4.044   5.071   2.385 -1.2552 -1.4000 -3.2987
 4351SOL    HW317177   3.928   5.020   2.468  0.2348  1.1188  0.6023
 4351SOL    MW417178   3.967   5.084   2.423  0.3645  0.2038  0.0758
 4352SOL     OW17179   0.332   5.174   2.321 -0.1458 -0.1745  0.6753
 4352SOL    HW217180   0.387   5.244   2.356 -0.7738 -1.2333  4.2276
 4352SOL    HW317181   0.296   5.209   2.240  0.7637  2.9816  1.5030
 4352SOL    MW417182   0.335   5.188   2.315  0.0177  0.2534  0.7232
 4353SOL     OW17183   3.241   5.574   0.673  0.1354  0.0367  0.3566
 4353SOL    HW217184   3.279   5.660   0.692  0.0973 -0.2807  1.9494
 4353SOL    HW317185   3.302   5.535   0.609  0.5655  0.9287  0.2056
 4353SOL    MW417186   3.254   5.580   0.667 -0.3514  0.1466  0.6528
 4354SOL     OW17187   2.616   5.402   2.791  0.0722  0.3814  0.4967
 4354SOL    HW217188   2.533   5.429   2.831  0.0911  2.1923 -0.5762
 4354SOL    HW317189   2.601   5.410   2.697  1.2356 -0.0351  0.2608
 4354SOL    MW417190   2.603   5.407   2.784  0.0804 -0.1302 -0.3336
 4355SOL     OW17191   4.108   2.505   2.330  0.2636 -0.1178 -0.4501
 4355SOL    HW217192   4.069   2.432   2.377  0.9399  0.2736  0.7599
 4355SOL    HW317193   4.099   2.580   2.389  1.0422  0.4190 -0.9801
 4355SOL    MW417194   4.102   2.505   2.344 -0.0439  0.4030 -0.2748
 4356SOL     OW17195   3.963   4.505   2.176  0.1756 -0.1540  0.3592
 4356SOL    HW217196   4.030   4.437   2.165  0.1030 -0.2124  0.2754
 4356SOL    HW317197   3.991   4.554   2.253  0.7178  0.2937 -0.1140
 4356SOL    MW417198   3.975   4.502   2.184 -0.1146  0.1806 -0.2816
 4357SOL     OW17199   5.755   6.235   6.188 -0.5912  0.1906 -0.3840
 4357SOL    HW217200   5.843   6.236   6.151 -0.0390  0.9521  0.8869
 4357SOL    HW317201   5.708   6.304   6.142 -0.4816 -0.1067 -0.9484
 4357SOL    MW417202   5.761   6.244   6.177 -0.1251  0.8266  0.1371
 4358SOL     OW17203   2.644   6.420   0.730  0.3739  0.0866  0.3994
 4358SOL    HW217204   2.717   6.481   0.740 -0.0271  0.3767  1.8016
 4358SOL    HW317205   2.566   6.474   0.739 -0.0368 -0.1961 -1.2379
 4358SOL    MW417206   2.644   6.435   0.733  0.3356 -0.1637 -0.8602
 4359SOL     OW17207   5.858   5.063   0.401 -0.7862  0.1004  0.3668
 4359SOL    HW217208   5.803   4.999   0.355 -1.6738  1.5429 -0.6720
 4359SOL    HW317209   5.879   5.022   0.484 -0.5336 -1.9252 -0.6431
 4359SOL    MW417210   5.854   5.049   0.406  0.2672 -0.0791 -0.7082
 4360SOL     OW17211   4.031   2.801   2.948 -0.3177  0.1709  0.1244
 4360SOL    HW217212   4.008   2.827   3.037 -1.6808 -0.3098 -0.0621
 4360SOL    HW317213   4.066   2.712   2.956  0.2910  0.4233  0.2678
 4360SOL    MW417214   4.032   2.793   2.960 -0.7218 -0.4312 -0.0762
 4361SOL     OW17215   2.973   5.160   2.949  0.1219  0.0133 -0.7874
 4361SOL    HW217216   2.912   5.155   2.875 -0.5379 -0.3199 -0.2361
 4361SOL    HW317217   2.917   5.151   3.026  0.8381  0.0544 -0.2566
 4361SOL    MW417218   2.958   5.158   2.949  0.0187 -0.1377 -0.0003
 4362SOL     OW17219   4.081   4.876   3.694 -0.1666  0.5813 -0.1915
 4362SOL    HW217220   4.168   4.852   3.660 -0.6429 -1.0658 -0.3154
 4362SOL    HW317221   4.098   4.910   3.782  0.4892 -1.2113  0.4170
 4362SOL    MW417222   4.095   4.878   3.701 -0.3089  0.2092  0.0609
 4363SOL     OW17223   2.505   5.085   2.495  0.3379 -0.4974  0.3736
 4363SOL    HW217224   2.454   5.106   2.416  3.1348  1.4869 -1.0853
 4363SOL    HW317225   2.453   5.121   2.567 -1.9743 -1.7692 -0.5535
 4363SOL    MW417226   2.491   5.093   2.494 -0.2627 -0.2134 -0.8998
 4364SOL     OW17227   6.231   0.482   1.194 -0.3747  0.1977 -0.4721
 4364SOL    HW217228   6.326   0.477   1.205 -0.5257 -1.3152  0.5533
 4364SOL    HW317229   6.203   0.390   1.190 -1.8855  0.5991  0.2003
 4364SOL    MW417230   6.239   0.469   1.195  0.7925 -0.1390  0.0756
 4365SOL     OW17231   1.262   5.461   3.227  0.2426 -0.1859 -0.3415
 4365SOL    HW217232   1.327   5.434   3.292  0.7998  0.7066 -0.5118
 4365SOL    HW317233   1.273   5.398   3.155  0.0682 -0.7792  0.1398
 4365SOL    MW417234   1.272   5.449   3.226  0.2192 -0.6498 -0.1821
 4366SOL     OW17235   5.348   0.758   1.136 -0.0045 -0.0927  0.4399
 4366SOL    HW217236   5.307   0.732   1.053  0.4680  1.6498 -0.3881
 4366SOL    HW317237   5.277   0.754   1.200 -0.7911  0.1520 -0.3981
 4366SOL    MW417238   5.333   0.754   1.134  0.0236  0.5086  0.7238
 4367SOL     OW17239   3.064   1.457   3.388 -0.1358  0.3133  0.4490
 4367SOL    HW217240   3.006   1.468   3.312  2.0255  0.5887 -1.2502
 4367SOL    HW317241   3.125   1.388   3.361  0.7311  0.4758  1.9345
 4367SOL    MW417242   3.064   1.449   3.374 -0.8757 -0.0432 -0.4246
 4368SOL     OW17243   4.536   5.688   4.967 -0.0773 -0.2145  0.4139
 4368SOL    HW217244   4.477   5.630   4.919 -2.8998  1.0112  2.1530
 4368SOL    HW317245   4.593   5.628   5.015  0.0065 -1.4555 -1.1503
 4368SOL    MW417246   4.536   5.672   4.967  0.2230  0.0483  0.5477
 4369SOL     OW17247   0.064   5.685   3.094  0.4898 -0.3528  0.3950
 4369SOL    HW217248  -0.006   5.732   3.048  3.2802  2.0905 -1.6918
 4369SOL    HW317249   0.087   5.613   3.035  1.0022 -0.0074  0.1739
 4369SOL    MW417250   0.058   5.682   3.080 -0.5888 -0.2537  0.2110
 4370SOL     OW17251   3.861   6.357   2.038  0.4300  0.2293  0.7942
 4370SOL    HW217252   3.923   6.301   2.083  0.3145 -0.6497 -0.0973
 4370SOL    HW317253   3.914   6.429   2.004  1.2170 -1.0993 -0.9512
 4370SOL    MW417254   3.876   6.359   2.039 -0.1335 -0.3323  0.6309
 4371SOL     OW17255   2.526   0.721   4.674  0.5481  0.8902 -0.1887
 4371SOL    HW217256   2.451   0.765   4.635  1.4734  1.2200 -1.6804
 4371SOL    HW317257   2.555   0.658   4.608  1.9544  1.2111  0.0839
 4371SOL    MW417258   2.520   0.719   4.660 -0.1612 -0.2042 -0.6583
 4372SOL     OW17259   4.504   1.830   1.989  0.4030 -0.5500 -0.5861
 4372SOL    HW217260   4.559   1.795   2.059 -0.5069  0.0375  0.4676
 4372SOL    HW317261   4.527   1.923   1.984 -0.1826 -0.3864 -0.4095
 4372SOL    MW417262   4.514   1.837   1.998 -0.3454  0.2145  0.5406
 4373SOL     OW17263   3.296   3.816   6.100 -0.0469  0.1735  0.0628
 4373SOL    HW217264   3.359   3.826   6.029  1.0123 -2.9388  0.4160
 4373SOL    HW317265   3.211   3.806   6.056  0.3126  0.2909 -0.6576
 4373SOL    MW417266   3.293   3.816   6.085  0.0252  0.2080 -0.6666
 4374SOL     OW17267   0.141   4.602   5.929 -0.2064  0.5496 -0.6256
 4374SOL    HW217268   0.232   4.577   5.912  0.0855  0.9472  0.3034
 4374SOL    HW317269   0.096   4.588   5.846  0.4391 -0.8563 -0.7645
 4374SOL    MW417270   0.147   4.597   5.916  0.6533 -0.2296  0.5646
 4375SOL     OW17271   4.418   5.064   2.779  0.0815  0.2738 -0.4767
 4375SOL    HW217272   4.327   5.080   2.802  0.2899  0.4665  0.2559
 4375SOL    HW317273   4.456   5.024   2.857  0.3395 -0.9375 -1.2017
 4375SOL    MW417274   4.411   5.061   2.792  0.0837 -0.4047  0.0731
 4376SOL     OW17275   6.011   2.685   2.286  0.2696  0.1560  0.0585
 4376SOL    HW217276   6.051   2.733   2.359  2.0937 -2.5345  0.9771
 4376SOL    HW317277   5.963   2.614   2.327 -2.2360  0.9406 -1.2756
 4376SOL    MW417278   6.010   2.682   2.301 -0.1051  0.4689  0.2586
 4377SOL     OW17279   0.139   1.067   1.174  0.7240 -0.0814  0.7330
 4377SOL    HW217280   0.178   1.094   1.091 -3.0777  3.4110 -0.2878
 4377SOL    HW317281   0.193   0.994   1.204  3.4855 -0.2506 -3.7541
 4377SOL    MW417282   0.151   1.061   1.167  0.2572  0.5695 -0.0048
 4378SOL     OW17283   4.867   0.103   3.912 -0.1675  0.4896 -0.0694
 4378SOL    HW217284   4.795   0.040   3.917  0.5394 -0.2541  1.1433
 4378SOL    HW317285   4.923   0.071   3.842 -0.2882  0.2808 -0.0694
 4378SOL    MW417286   4.865   0.091   3.904 -0.3100  0.0277  0.1142
 4379SOL     OW17287   1.202   4.310   5.498  0.0580  0.0756 -0.0304
 4379SOL    HW217288   1.290   4.301   5.534  0.5971  1.2213 -0.9844
 4379SOL    HW317289   1.148   4.337   5.573 -0.0876 -3.0979  1.1598
 4379SOL    MW417290   1.207   4.312   5.513 -0.0185 -0.5655 -1.3853
 4380SOL     OW17291   3.198   1.564   4.907 -0.5922  0.5324 -0.2985
 4380SOL    HW217292   3.212   1.657   4.926 -1.0531  0.2704  1.5477
 4380SOL    HW317293   3.108   1.548   4.935 -0.6528 -0.3849 -0.9953
 4380SOL    MW417294   3.188   1.574   4.913  0.2047 -0.0223 -0.6202
 4381SOL     OW17295   5.379   5.507   4.037 -0.2935 -0.1690 -0.4262
 4381SOL    HW217296   5.455   5.462   4.073  0.3232 -0.2153 -1.7068
 4381SOL    HW317297   5.408   5.597   4.024 -0.9394  0.1728  0.4382
 4381SOL    MW417298   5.393   5.513   4.040  0.1363 -0.1402 -0.5353
 4382SOL     OW17299   5.609   5.765   2.780  0.8614  0.3134 -0.1214
 4382SOL    HW217300   5.602   5.827   2.852  2.5504  1.4242 -0.8494
 4382SOL    HW317301   5.696   5.727   2.789  0.4548 -0.7913 -0.6165
 4382SOL    MW417302   5.620   5.768   2.790 -0.0813 -0.2266  0.1036
 4383SOL     OW17303   0.763   3.128   5.307 -0.0363 -0.1566 -0.2479
 4383SOL    HW217304   0.760   3.037   5.338  0.6201 -0.5008 -1.1454
 4383SOL    HW317305   0.853   3.141   5.278 -0.2996  0.5520 -0.7859
 4383SOL    MW417306   0.774   3.117   5.307  0.0678  0.6205 -0.1666
 4384SOL     OW17307   5.332   2.458   4.428 -0.4045 -0.0950  0.5384
 4384SOL    HW217308   5.422   2.489   4.421 -0.1222 -0.8349  0.8005
 4384SOL    HW317309   5.312   2.462   4.522 -0.9174  0.8119  0.3951
 4384SOL    MW417310   5.341   2.462   4.440 -0.0538  0.0562  0.0833
 4385SOL     OW17311   3.836   2.791   3.233 -0.0777  0.6077 -0.1975
 4385SOL    HW217312   3.866   2.705   3.203 -0.3929  0.2842  0.3956
 4385SOL    HW317313   3.749   2.800   3.193 -0.1827  0.5018  0.0022
 4385SOL    MW417314   3.828   2.781   3.224  0.8450 -0.6436 -0.0586
 4386SOL     OW17315   4.626   2.333   2.802  0.2423 -0.3519 -0.0061
 4386SOL    HW217316   4.559   2.268   2.820 -1.0600  0.9477  0.0257
 4386SOL    HW317317   4.653   2.365   2.889 -1.4476  1.3780 -0.0441
 4386SOL    MW417318   4.621   2.329   2.816  0.6192  0.8692  0.0025
 4387SOL     OW17319   3.099   6.350   1.771  0.3088  0.0166  0.1224
 4387SOL    HW217320   3.059   6.337   1.856 -0.4795 -0.1924 -0.2687
 4387SOL    HW317321   3.191   6.369   1.790 -0.1054  1.1825  1.0670
 4387SOL    MW417322   3.106   6.351   1.784  0.3609  0.7862  0.2709
 4388SOL     OW17323   4.783   4.664   0.306  0.1755 -0.6927 -0.2596
 4388SOL    HW217324   4.878   4.662   0.295  0.2968  1.3619  0.0369
 4388SOL    HW317325   4.770   4.655   0.401  0.1745  0.3968 -0.1437
 4388SOL    MW417326   4.794   4.663   0.317  0.2247  0.2907 -0.3692
 4389SOL     OW17327   6.128   2.097   0.109 -0.5713  0.3960 -0.7543
 4389SOL    HW217328   6.076   2.032   0.155 -1.2610  0.7223 -1.0644
 4389SOL    HW317329   6.068   2.170   0.094 -0.5565  0.0356 -2.7704
 4389SOL    MW417330   6.114   2.098   0.113  0.1458  0.3719 -0.3078
 4390SOL     OW17331   4.023   5.239   2.728  0.6669 -0.2951  0.0280
 4390SOL    HW217332   3.998   5.175   2.661  0.7016  0.2871 -0.5546
 4390SOL    HW317333   4.046   5.317   2.678 -0.7799  0.6626  0.7874
 4390SOL    MW417334   4.023   5.240   2.713  0.0479  0.1312 -0.1641
 4391SOL     OW17335   4.775   1.152   3.113 -0.4320 -0.0533  0.1435
 4391SOL    HW217336   4.707   1.202   3.159 -0.0267  1.5022 -0.8706
 4391SOL    HW317337   4.790   1.076   3.168 -2.5558 -0.1287  0.7131
 4391SOL    MW417338   4.768   1.149   3.126  0.0505 -0.2965  0.4147
 4392SOL     OW17339   5.415   1.738   1.233 -0.1498 -0.4278 -0.0891
 4392SOL    HW217340   5.397   1.661   1.179 -0.6026 -0.5337  0.2075
 4392SOL    HW317341   5.388   1.812   1.179 -0.4492 -0.5232 -0.0706
 4392SOL    MW417342   5.409   1.737   1.219  0.7722 -0.8078  0.8857
 4393SOL     OW17343   2.840   5.423   3.343 -0.2391  0.1624 -0.6783
 4393SOL    HW217344   2.898   5.499   3.341  1.7847 -1.3168 -1.7637
 4393SOL    HW317345   2.821   5.404   3.251 -2.5213  0.5756 -0.3613
 4393SOL    MW417346   2.845   5.431   3.331  0.2803 -0.1600  0.0441
 4394SOL     OW17347   3.148   0.970   4.614  0.0057  0.0549 -0.7201
 4394SOL    HW217348   3.075   0.994   4.556 -0.6020 -1.3109 -0.5695
 4394SOL    HW317349   3.179   1.053   4.649 -1.3727  0.6958 -0.9272
 4394SOL    MW417350   3.142   0.984   4.611  0.3520 -0.3695  0.1784
 4395SOL     OW17351   1.016   5.258   4.292 -0.0060 -0.4801  0.2136
 4395SOL    HW217352   1.091   5.252   4.232  0.0058 -0.0973  0.1898
 4395SOL    HW317353   0.941   5.274   4.235 -0.4261 -2.7484  0.0457
 4395SOL    MW417354   1.016   5.259   4.276 -0.0375 -0.6456 -0.1744
 4396SOL     OW17355   3.048   6.290   2.041  0.3204  0.1574 -0.1114
 4396SOL    HW217356   3.107   6.354   2.080  0.9079 -0.2209 -0.3761
 4396SOL    HW317357   3.089   6.206   2.057  0.1973 -0.0584 -0.8950
 4396SOL    MW417358   3.061   6.288   2.048  0.0019  0.0612  0.1048
 4397SOL     OW17359   5.376   4.456   4.887  0.0127  0.3086  0.0324
 4397SOL    HW217360   5.286   4.454   4.919  0.4369 -1.3141  1.2572
 4397SOL    HW317361   5.373   4.406   4.805 -0.1189 -0.2789  0.3842
 4397SOL    MW417362   5.364   4.449   4.880 -0.0996 -0.6993 -0.2747
 4398SOL     OW17363   3.313   3.875   1.954  0.2001  0.1037 -0.0535
 4398SOL    HW217364   3.283   3.876   2.045  1.5621  1.2194  0.4014
 4398SOL    HW317365   3.233   3.892   1.903 -0.2627  1.4042  1.0377
 4398SOL    MW417366   3.298   3.877   1.960 -0.5515  0.0223  0.1390
 4399SOL     OW17367   3.310   4.357   3.775  0.4198 -0.5806 -0.5989
 4399SOL    HW217368   3.393   4.316   3.798 -0.0064 -1.2214 -0.1554
 4399SOL    HW317369   3.247   4.319   3.837  0.1167  1.2331  0.2772
 4399SOL    MW417370   3.313   4.347   3.786  0.3042  0.0796 -0.0330
 4400SOL     OW17371   6.135   1.093   4.934  0.3163 -0.1247 -0.0705
 4400SOL    HW217372   6.072   1.021   4.931  1.3372 -1.0501  0.1603
 4400SOL    HW317373   6.218   1.052   4.958  0.8345  1.1955  0.5297
 4400SOL    MW417374   6.137   1.078   4.937  0.0569  0.0615 -0.0625
 4401SOL     OW17375   2.726   4.403   3.063  0.1610  0.1580 -0.5971
 4401SOL    HW217376   2.765   4.380   2.979 -0.5685 -1.5710 -0.5184
 4401SOL    HW317377   2.795   4.387   3.127  0.3241  0.2450 -0.7520
 4401SOL    MW417378   2.740   4.398   3.061  0.0868  0.2925 -0.4591
 4402SOL     OW17379   1.844   2.978   3.021 -0.0303  0.0499 -0.1326
 4402SOL    HW217380   1.934   2.988   2.990  0.5126 -0.2913  1.2704
 4402SOL    HW317381   1.806   3.065   3.010  1.2988  0.9302  1.6809
 4402SOL    MW417382   1.851   2.991   3.016 -0.3698 -0.8751  0.5186
 4403SOL     OW17383   0.465   5.198   3.786  0.1561 -0.1470  0.3203
 4403SOL    HW217384   0.486   5.205   3.879 -2.2775  2.5038  0.7925
 4403SOL    HW317385   0.496   5.280   3.748  1.8021 -1.4997 -1.4465
 4403SOL    MW417386   0.472   5.209   3.793  0.7336 -0.4821 -0.4533
 4404SOL     OW17387   2.870   2.376   0.193 -0.8345 -0.1544 -0.2691
 4404SOL    HW217388   2.817   2.333   0.260 -0.7339 -0.8255 -0.6095
 4404SOL    HW317389   2.929   2.308   0.162 -3.0257 -0.8907 -3.3519
 4404SOL    MW417390   2.870   2.361   0.198  0.2866 -0.2052  0.1125
 4405SOL     OW17391   5.141   3.348   2.262  0.3171 -0.6613  0.3017
 4405SOL    HW217392   5.125   3.382   2.350  3.9869 -3.0165  2.1460
 4405SOL    HW317393   5.125   3.254   2.270 -0.0134 -0.8352 -1.8132
 4405SOL    MW417394   5.137   3.340   2.275 -0.0689 -0.3491 -0.0280
 4406SOL     OW17395   2.061   5.989   0.403 -0.3066 -0.1001 -0.0336
 4406SOL    HW217396   2.031   5.918   0.459 -0.5182 -0.2815 -0.3739
 4406SOL    HW317397   2.115   6.044   0.460 -0.4933 -0.3004  0.3363
 4406SOL    MW417398   2.064   5.987   0.418  0.5297  0.0159  0.0449
 4407SOL     OW17399   4.178   2.968   5.234  0.0590  0.1435 -0.4242
 4407SOL    HW217400   4.132   2.891   5.267 -0.3318  0.8895  0.8668
 4407SOL    HW317401   4.211   2.942   5.148  1.0115 -1.8536  0.4893
 4407SOL    MW417402   4.176   2.955   5.227 -0.0974  0.5041 -0.2568
 4408SOL     OW17403   1.345   6.077   3.241  0.3161  0.5697 -0.1937
 4408SOL    HW217404   1.423   6.025   3.223  1.0135  2.3462 -2.7980
 4408SOL    HW317405   1.284   6.055   3.171 -1.0773  0.1797  1.0800
 4408SOL    MW417406   1.347   6.067   3.230  0.0269 -0.2702  0.2221
 4409SOL     OW17407   2.375   2.847   1.191 -0.0904 -0.7727  0.1250
 4409SOL    HW217408   2.280   2.833   1.182 -0.3130 -0.8941  2.1295
 4409SOL    HW317409   2.410   2.760   1.209  0.6082 -0.9196 -1.7157
 4409SOL    MW417410   2.367   2.833   1.192 -0.2617 -0.1094 -0.0745
 4410SOL     OW17411   5.939   3.871   4.949 -0.1444 -0.0955  1.0888
 4410SOL    HW217412   5.947   3.930   5.024 -0.3610 -0.7782  1.6559
 4410SOL    HW317413   5.858   3.823   4.965 -0.2057 -0.2239  0.3970
 4410SOL    MW417414   5.929   3.873   4.961 -0.1358 -0.0162 -0.3219
 4411SOL     OW17415   1.226   4.243   6.207  0.4769  0.0408 -0.4816
 4411SOL    HW217416   1.232   4.158   6.164  2.4069 -0.8042  1.2803
 4411SOL    HW317417   1.268   4.304   6.145  2.2978 -0.9665 -0.3111
 4411SOL    MW417418   1.232   4.240   6.193 -0.3098  0.2721 -0.0265
 4412SOL     OW17419   4.539   4.089   2.842 -0.6384 -0.4400 -0.8941
 4412SOL    HW217420   4.499   4.129   2.919 -0.7947  0.3035 -1.3568
 4412SOL    HW317421   4.502   4.001   2.839 -1.7664  0.0190 -0.9526
 4412SOL    MW417422   4.529   4.083   2.852 -0.0623 -0.0408  0.0408
 4413SOL     OW17423   0.766   4.719   2.118  0.0719  0.9320  0.6426
 4413SOL    HW217424   0.828   4.774   2.165 -0.1994  0.5251  1.4832
 4413SOL    HW317425   0.681   4.762   2.129 -0.6156 -0.8478  3.4181
 4413SOL    MW417426   0.763   4.732   2.125 -0.0353  0.2382 -1.0077
 4414SOL     OW17427   1.270   5.106   5.359 -0.6504  0.6439  0.3242
 4414SOL    HW217428   1.277   5.185   5.413  0.8549 -0.1062  1.2995
 4414SOL    HW317429   1.331   5.121   5.287  1.2731 -0.4336  1.6428
 4414SOL    MW417430   1.279   5.119   5.357  0.0591 -0.6863 -0.1167
 4415SOL     OW17431   2.737   0.107   4.367  0.5729 -0.1476 -0.0435
 4415SOL    HW217432   2.725   0.022   4.323  0.3191 -1.0700  1.7277
 4415SOL    HW317433   2.704   0.093   4.456  1.3396  1.5730  0.5525
 4415SOL    MW417434   2.731   0.094   4.373  0.0944  0.0524 -0.2941
 4416SOL     OW17435   5.314   4.316   4.649  0.2304 -0.4762  0.7690
 4416SOL    HW217436   5.219   4.313   4.652 -0.0185  0.0998 -2.4500
 4416SOL    HW317437   5.334   4.404   4.615  2.0144 -0.1627  2.4527
 4416SOL    MW417438   5.304   4.327   4.645  0.1885  0.2517 -0.1932
 4417SOL     OW17439   5.445   0.022   4.298  0.7439 -0.1944 -0.3784
 4417SOL    HW217440   5.473  -0.063   4.266 -0.6992 -0.3515 -1.3366
 4417SOL    HW317441   5.385   0.054   4.231  0.4108  1.0894  0.4917
 4417SOL    MW417442   5.441   0.015   4.285  0.3958  0.0160 -0.2886
 4418SOL     OW17443   3.509   3.422   2.004  0.2416  0.1141 -0.5396
 4418SOL    HW217444   3.521   3.516   1.989  0.9825  0.1568  0.2755
 4418SOL    HW317445   3.416   3.408   1.987  0.7441  0.3074 -4.1378
 4418SOL    MW417446   3.498   3.433   2.000 -0.4740  0.2545 -0.1264
 4419SOL     OW17447   2.033   1.376   5.552 -0.2633  0.1295  0.4785
 4419SOL    HW217448   2.004   1.407   5.466 -1.2975 -0.5612  0.5627
 4419SOL    HW317449   1.976   1.421   5.614 -0.3826 -0.3628  0.7264
 4419SOL    MW417450   2.022   1.386   5.549 -0.2640 -0.2692  0.1735
 4420SOL     OW17451   5.321   1.734   6.068 -0.2977 -0.0526 -0.5182
 4420SOL    HW217452   5.277   1.746   5.984 -1.5911 -0.1252  0.1250
 4420SOL    HW317453   5.288   1.650   6.100  0.5987 -0.2853 -0.1758
 4420SOL    MW417454   5.311   1.724   6.061 -0.1352  0.2455  0.4013
 4421SOL     OW17455   5.253   6.117   1.756  0.4480 -0.2950 -0.3786
 4421SOL    HW217456   5.341   6.149   1.776  0.5054  0.2733 -1.4463
 4421SOL    HW317457   5.220   6.179   1.691 -0.1039 -1.4428 -1.2222
 4421SOL    MW417458   5.261   6.129   1.750  0.2432  0.0898 -0.1024
 4422SOL     OW17459   0.358   3.356   4.864 -0.5491  0.4073  0.3154
 4422SOL    HW217460   0.284   3.414   4.845  0.1436  0.5263 -2.4512
 4422SOL    HW317461   0.318   3.269   4.871 -0.9761  0.4181 -1.5269
 4422SOL    MW417462   0.343   3.352   4.863  0.2505 -0.0294 -0.2214
 4423SOL     OW17463   0.822   4.883   5.921  0.0251 -0.3309  0.1958
 4423SOL    HW217464   0.779   4.935   5.852 -1.1036 -2.3692 -0.7180
 4423SOL    HW317465   0.914   4.909   5.916 -0.6184  2.3194  0.5127
 4423SOL    MW417466   0.828   4.894   5.911 -0.5622 -0.3084  0.2296
 4424SOL     OW17467   1.211   3.110   5.451  0.0328  0.3658  0.5177
 4424SOL    HW217468   1.256   3.047   5.394 -0.2477  1.1523 -0.6123
 4424SOL    HW317469   1.276   3.135   5.516 -0.0702 -1.6516  1.4777
 4424SOL    MW417470   1.225   3.105   5.452 -0.4966 -0.0791  0.1423
 4425SOL     OW17471   4.866   6.409   0.152 -0.2560  0.8927 -0.1546
 4425SOL    HW217472   4.784   6.446   0.183 -1.3880 -3.0194  2.1243
 4425SOL    HW317473   4.846   6.375   0.065 -0.5206  1.4753 -0.3255
 4425SOL    MW417474   4.853   6.409   0.145 -0.0698 -0.0601 -0.2887
 4426SOL     OW17475   5.082   2.088   5.533 -0.0806  0.1567  0.1792
 4426SOL    HW217476   5.063   1.998   5.561  1.7553 -0.1297  0.5967
 4426SOL    HW317477   5.154   2.116   5.589 -1.0561  2.1645  0.5224
 4426SOL    MW417478   5.089   2.079   5.544  0.1843  0.1705  0.1683
 4427SOL     OW17479   2.230   4.889   5.439 -0.3820  0.4736 -0.4311
 4427SOL    HW217480   2.177   4.821   5.481  1.0487 -0.2119  0.3241
 4427SOL    HW317481   2.226   4.964   5.499 -0.3261  0.3600 -0.2884
 4427SOL    MW417482   2.222   4.890   5.452 -0.1512  1.0068  0.8700
 4428SOL     OW17483   5.846   1.677   3.596 -0.1897  0.4154 -0.3036
 4428SOL    HW217484   5.914   1.621   3.633 -1.0434 -0.4057  0.0603
 4428SOL    HW317485   5.807   1.721   3.672 -1.6349 -0.9213 -0.2128
 4428SOL    MW417486   5.850   1.676   3.611 -0.1735  1.1050  0.3006
 4429SOL     OW17487   4.647   3.993   4.575  0.6413  0.5079  0.0460
 4429SOL    HW217488   4.619   3.943   4.499 -1.0055  2.1387 -0.4900
 4429SOL    HW317489   4.685   4.073   4.538  2.3047  0.1553  0.9023
 4429SOL    MW417490   4.649   3.997   4.560  0.1519  0.1676  0.0791
 4430SOL     OW17491   4.123   3.263   1.546  0.2061  0.0260 -0.5294
 4430SOL    HW217492   4.079   3.254   1.462 -0.4930  1.5008 -0.3645
 4430SOL    HW317493   4.093   3.348   1.579  1.4309  0.0341  0.6403
 4430SOL    MW417494   4.113   3.273   1.540 -0.4544 -0.0667  0.1292
 4431SOL     OW17495   3.777   5.874   4.273  0.4119  0.0458 -0.0002
 4431SOL    HW217496   3.791   5.963   4.240 -1.8089  0.8342  0.9675
 4431SOL    HW317497   3.864   5.843   4.295  1.3161  1.7562 -0.9416
 4431SOL    MW417498   3.790   5.882   4.272  0.4206  0.3169 -0.3912
 4432SOL     OW17499   4.306   6.405   1.460  0.4977 -0.3276  0.0890
 4432SOL    HW217500   4.365   6.331   1.446 -0.3272 -0.7618 -1.2085
 4432SOL    HW317501   4.219   6.372   1.435 -0.0282  0.8179  0.3269
 4432SOL    MW417502   4.302   6.390   1.455 -0.1385 -0.5130 -0.0881
 4433SOL     OW17503   2.756   5.931   0.146 -0.6931  0.2820 -0.1568
 4433SOL    HW217504   2.703   5.909   0.069 -1.9250 -0.7408  0.9520
 4433SOL    HW317505   2.696   5.978   0.203 -0.4143 -0.8395  1.1009
 4433SOL    MW417506   2.741   5.935   0.143 -0.0578 -0.0910  0.1066
 4434SOL     OW17507   6.170   5.482   6.351  0.6176 -0.5192 -0.6566
 4434SOL    HW217508   6.103   5.504   6.285  1.2054  2.2333 -0.4448
 4434SOL    HW317509   6.122   5.480   6.434 -0.0477 -3.5990 -0.9896
 4434SOL    MW417510   6.154   5.485   6.353  0.2105  0.3622  0.7693
 4435SOL     OW17511   2.343   2.526   0.925  0.0567 -0.0416  0.1504
 4435SOL    HW217512   2.304   2.604   0.886 -1.3202 -0.7068  0.1213
 4435SOL    HW317513   2.279   2.498   0.991  0.8891 -0.7029  0.6947
 4435SOL    MW417514   2.329   2.532   0.929 -0.0629  0.3518  0.8013
 4436SOL     OW17515   3.091   0.323   2.970  0.2580  0.6640 -0.2253
 4436SOL    HW217516   3.060   0.309   3.059  1.6373  0.1531  0.2036
 4436SOL    HW317517   3.027   0.278   2.915 -1.6170  2.4941  0.3273
 4436SOL    MW417518   3.079   0.315   2.974  0.0239  0.3533 -0.3742
 4437SOL     OW17519   5.515   5.361   1.299  0.2402 -0.4120 -0.5491
 4437SOL    HW217520   5.538   5.332   1.210  1.0768  0.3340 -0.5922
 4437SOL    HW317521   5.593   5.407   1.330 -0.0596 -0.6189  0.5600
 4437SOL    MW417522   5.529   5.363   1.291  0.1193  0.0938  0.7434
 4438SOL     OW17523   3.758   0.480   6.276 -0.3403 -0.1848  0.1240
 4438SOL    HW217524   3.806   0.524   6.346 -1.4468 -0.3926  1.0547
 4438SOL    HW317525   3.793   0.518   6.195 -0.0205  1.1199  0.8387
 4438SOL    MW417526   3.769   0.491   6.275  0.4981 -0.2334 -0.1987
 4439SOL     OW17527   4.265   4.167   0.805  0.5859 -0.3768 -0.2423
 4439SOL    HW217528   4.314   4.184   0.885 -0.9212  1.7438  0.3258
 4439SOL    HW317529   4.307   4.223   0.739  0.0189  0.1598 -0.1630
 4439SOL    MW417530   4.277   4.177   0.807 -0.6232  0.5315 -0.1902
 4440SOL     OW17531   0.019   0.870   0.079 -0.6465 -0.1659  0.4110
 4440SOL    HW217532  -0.057   0.861   0.137 -0.6377  0.5130  0.5426
 4440SOL    HW317533   0.089   0.903   0.136 -0.3149 -0.5581  0.2399
 4440SOL    MW417534   0.018   0.873   0.094 -0.6702  0.1678 -0.3831
 4441SOL     OW17535   5.619   4.557   0.046 -0.3610 -0.5042  0.2277
 4441SOL    HW217536   5.553   4.599   0.102 -2.0173  0.0502 -1.9937
 4441SOL    HW317537   5.604   4.463   0.058  0.3956 -0.4507  1.8673
 4441SOL    MW417538   5.608   4.550   0.055  0.2630 -0.2740 -0.4834
 4442SOL     OW17539   5.819   4.625   2.713 -0.1680 -0.7191 -0.1199
 4442SOL    HW217540   5.903   4.669   2.699  0.7509 -1.5640  2.2163
 4442SOL    HW317541   5.767   4.687   2.763 -0.4802 -0.6657 -0.5084
 4442SOL    MW417542   5.823   4.639   2.717  0.0441  0.0885  0.1370
 4443SOL     OW17543   2.863   4.261   2.111  0.7858 -0.7092 -0.2130
 4443SOL    HW217544   2.928   4.241   2.178 -0.2797  0.3445  1.2074
 4443SOL    HW317545   2.824   4.344   2.139 -1.5506 -1.5600 -0.6838
 4443SOL    MW417546   2.867   4.269   2.124  0.0767 -0.2741 -0.0853
 4444SOL     OW17547   2.286   2.143   0.911  0.2715 -0.0729  0.1336
 4444SOL    HW217548   2.327   2.215   0.865  1.2841  0.4187  1.7220
 4444SOL    HW317549   2.283   2.072   0.847 -0.7248  1.3321 -1.4501
 4444SOL    MW417550   2.291   2.143   0.897 -0.1703 -0.0356  0.1517
 4445SOL     OW17551   4.424   4.295   2.056 -0.6012  0.8610 -0.2085
 4445SOL    HW217552   4.333   4.300   2.084 -0.3112  0.5807  0.8381
 4445SOL    HW317553   4.474   4.332   2.129  0.0747  1.7764 -1.1088
 4445SOL    MW417554   4.419   4.300   2.069 -0.1105  0.3327  0.2483
 4446SOL     OW17555   1.651   2.589   3.544  0.5050 -0.2030  0.6506
 4446SOL    HW217556   1.611   2.531   3.608  0.1398  0.2351  0.8208
 4446SOL    HW317557   1.744   2.592   3.569  0.3887 -0.1322  1.0803
 4446SOL    MW417558   1.658   2.582   3.556 -0.3830  0.4446 -0.0306
 4447SOL     OW17559   1.809   5.188   1.087 -0.4710  0.5526  0.4788
 4447SOL    HW217560   1.860   5.172   1.167 -0.0847  0.2561  0.1796
 4447SOL    HW317561   1.857   5.142   1.018  0.1026  2.1104 -0.2266
 4447SOL    MW417562   1.822   5.180   1.088 -0.2904 -0.2255  0.3289
 4448SOL     OW17563   4.433   1.160   6.438 -0.3560  0.0607 -0.0906
 4448SOL    HW217564   4.404   1.124   6.354  1.5950  1.3334 -1.3898
 4448SOL    HW317565   4.502   1.100   6.468 -1.5080 -0.7768  1.0180
 4448SOL    MW417566   4.438   1.147   6.431 -0.0476 -0.6627  0.4688
 4449SOL     OW17567   4.106   5.755   0.596 -0.0876 -0.2833  0.1155
 4449SOL    HW217568   4.178   5.692   0.595  0.4010  0.1000  3.1059
 4449SOL    HW317569   4.061   5.740   0.679 -0.7880  2.3742  0.3191
 4449SOL    MW417570   4.109   5.745   0.607  0.1613 -0.3104  0.0305
 4450SOL     OW17571   5.028   5.640   0.711  0.4485  0.3577  0.3049
 4450SOL    HW217572   4.965   5.712   0.714  1.2728  1.0665  1.0964
 4450SOL    HW317573   5.102   5.670   0.764  0.8329 -1.0529  0.6123
 4450SOL    MW417574   5.029   5.654   0.718 -0.2205  0.0790  0.1881
 4451SOL     OW17575   5.912   4.682   3.302  0.3564 -0.2376  0.2798
 4451SOL    HW217576   5.817   4.673   3.303  0.3910 -0.6967 -0.2287
 4451SOL    HW317577   5.938   4.655   3.213  0.7361  2.1418 -0.4160
 4451SOL    MW417578   5.903   4.677   3.290  0.1752 -0.1048 -0.8978
 4452SOL     OW17579   5.299   4.388   0.114 -0.4664 -0.0157  0.3706
 4452SOL    HW217580   5.263   4.392   0.026  0.2686  0.8428  0.0952
 4452SOL    HW317581   5.222   4.378   0.171 -0.9806 -0.0955 -0.3268
 4452SOL    MW417582   5.284   4.388   0.110 -0.0146 -0.0493  0.0417
 4453SOL     OW17583   0.606   0.578   1.363 -0.3504 -0.0245 -0.3537
 4453SOL    HW217584   0.674   0.622   1.313  0.3575  1.7693  2.0149
 4453SOL    HW317585   0.654   0.527   1.429 -1.2514 -0.1150  0.2556
 4453SOL    MW417586   0.621   0.577   1.365  0.3565  0.2695  0.7733
 4454SOL     OW17587   6.246   5.709   4.595 -0.1874  0.2329  0.1166
 4454SOL    HW217588   6.169   5.761   4.572 -0.1704 -1.0512 -3.4888
 4454SOL    HW317589   6.316   5.744   4.540  1.6453  0.7142  2.5844
 4454SOL    MW417590   6.245   5.720   4.585 -0.1416 -0.0170  0.1013
 4455SOL     OW17591   0.060   4.951   0.985 -0.2410  0.0057  0.1788
 4455SOL    HW217592   0.154   4.943   0.998 -0.0558  1.3066 -0.2666
 4455SOL    HW317593   0.028   4.993   1.065 -0.3198  0.3286 -0.0221
 4455SOL    MW417594   0.068   4.955   0.997  0.8794  0.3833  0.3807
 4456SOL     OW17595   5.039   5.875   5.099 -0.0267 -0.6503  0.0330
 4456SOL    HW217596   5.083   5.861   5.183  0.8285 -0.8996 -0.4465
 4456SOL    HW317597   5.077   5.956   5.065 -1.6992  0.4910  0.7102
 4456SOL    MW417598   5.049   5.884   5.105  0.6613  0.7345 -0.6437
 4457SOL     OW17599   6.300   3.134   1.702 -0.2218  0.1694 -0.4718
 4457SOL    HW217600   6.317   3.050   1.661  0.0061  0.2597 -0.5646
 4457SOL    HW317601   6.251   3.113   1.781 -0.7429  0.0016 -0.8323
 4457SOL    MW417602   6.295   3.120   1.707  0.2115  0.2974 -0.1228
 4458SOL     OW17603   0.234   2.091   4.811 -0.4783  0.2489 -0.2357
 4458SOL    HW217604   0.279   2.019   4.768  0.2060 -0.3603  1.4234
 4458SOL    HW317605   0.145   2.059   4.825 -0.7429  0.5019 -1.2820
 4458SOL    MW417606   0.228   2.077   4.807  0.1160 -0.0502  0.1118
 4459SOL     OW17607   5.644   6.331   0.624 -0.2205  0.0019  0.4814
 4459SOL    HW217608   5.682   6.255   0.667 -2.0473 -0.8618  0.6861
 4459SOL    HW317609   5.622   6.392   0.695 -1.0801 -0.4084  0.5850
 4459SOL    MW417610   5.646   6.329   0.639  0.2951 -0.0697  0.5724
 4460SOL     OW17611   4.303   0.789   5.827  0.1646  0.2960 -0.4475
 4460SOL    HW217612   4.370   0.724   5.811  0.0235 -0.1843  0.7743
 4460SOL    HW317613   4.234   0.741   5.873  1.6394  1.9167  4.0109
 4460SOL    MW417614   4.302   0.774   5.831  0.8995 -0.1001  0.4230
 4461SOL     OW17615   1.358   2.739   0.729 -0.7253 -0.8185  0.2161
 4461SOL    HW217616   1.360   2.645   0.743 -1.6926 -0.7818  0.6769
 4461SOL    HW317617   1.292   2.752   0.660 -0.9126 -0.4462  0.4606
 4461SOL    MW417618   1.350   2.729   0.722 -0.1258  0.1035 -0.6878
 4462SOL     OW17619   2.083   4.668   3.079 -0.1780  0.1538  0.1198
 4462SOL    HW217620   2.078   4.576   3.106 -0.7761 -0.1299 -0.8677
 4462SOL    HW317621   2.056   4.666   2.987 -0.0470  1.3061  0.0495
 4462SOL    MW417622   2.079   4.655   3.070  0.1160 -0.5150  0.0031
 4463SOL     OW17623   4.893   0.798   2.425  0.0473 -0.3327  0.0656
 4463SOL    HW217624   4.890   0.835   2.337  0.8766 -0.7653 -0.1490
 4463SOL    HW317625   4.952   0.723   2.418 -0.3958 -0.7718  0.8420
 4463SOL    MW417626   4.900   0.793   2.413  0.4626 -0.0320 -0.2671
 4464SOL     OW17627   0.300   3.880   3.330  1.4315  0.8107 -0.0014
 4464SOL    HW217628   0.302   3.906   3.238  1.1447 -0.7209 -0.4812
 4464SOL    HW317629   0.247   3.947   3.373 -1.5844 -0.3137 -1.6505
 4464SOL    MW417630   0.293   3.892   3.323 -0.2042 -0.2847  0.0190
 4465SOL     OW17631   3.735   3.471   0.751  0.3570 -0.3254 -0.4217
 4465SOL    HW217632   3.818   3.461   0.704  0.4603  0.9058 -0.5327
 4465SOL    HW317633   3.759   3.468   0.843  0.5962  0.3639 -0.4495
 4465SOL    MW417634   3.749   3.470   0.757  0.1417  0.0937  0.0960
 4466SOL     OW17635   5.897   1.309   5.054 -0.8870  0.1407 -0.0690
 4466SOL    HW217636   5.817   1.257   5.047 -0.8431  0.2495 -1.8665
 4466SOL    HW317637   5.932   1.312   4.965  2.1258 -1.4274  0.9091
 4466SOL    MW417638   5.891   1.302   5.042  0.6710  0.1948 -0.0974
 4467SOL     OW17639   6.074   4.218   0.801 -0.3559 -0.2464 -0.0046
 4467SOL    HW217640   6.007   4.178   0.745 -0.6717 -0.3990  0.4769
 4467SOL    HW317641   6.032   4.225   0.887 -0.8395  2.3520 -0.3436
 4467SOL    MW417642   6.059   4.214   0.805  0.1760  0.5896  0.7710
 4468SOL     OW17643   1.286   3.658   0.255  0.0188  0.1737  1.0087
 4468SOL    HW217644   1.197   3.670   0.222 -0.0791 -1.4531  0.5979
 4468SOL    HW317645   1.339   3.720   0.204 -0.5030 -0.6290 -0.5944
 4468SOL    MW417646   1.281   3.668   0.244 -0.1194 -0.0807 -0.0999
 4469SOL     OW17647   3.795   2.521   3.573  0.6277 -0.8133  0.4966
 4469SOL    HW217648   3.854   2.528   3.648 -0.3184 -2.0665  1.4228
 4469SOL    HW317649   3.739   2.446   3.594 -1.2602  0.2834 -0.3560
 4469SOL    MW417650   3.795   2.512   3.586 -0.4031 -0.5463 -0.7560
 4470SOL     OW17651   5.569   2.257   1.998  0.5108  0.1845  0.2182
 4470SOL    HW217652   5.518   2.204   1.937  2.0373  0.1225 -1.0782
 4470SOL    HW317653   5.643   2.289   1.946  1.5683  0.5992  1.8875
 4470SOL    MW417654   5.572   2.254   1.983  0.8455 -0.1732 -0.1437
 4471SOL     OW17655   6.146   4.167   5.291 -0.2573  0.7690  0.0148
 4471SOL    HW217656   6.072   4.113   5.267 -0.0334  1.0713 -1.4624
 4471SOL    HW317657   6.108   4.239   5.342 -0.8469  0.4309  0.0602
 4471SOL    MW417658   6.132   4.169   5.295 -0.2279  0.0754  0.8106
 4472SOL     OW17659   2.791   4.819   5.947 -0.3887  0.2061  0.4006
 4472SOL    HW217660   2.824   4.739   5.988 -0.4189  0.1258  0.2692
 4472SOL    HW317661   2.868   4.859   5.907 -0.2683  0.5435  0.9659
 4472SOL    MW417662   2.806   4.814   5.947 -0.5804 -0.1930 -0.0361
 4473SOL     OW17663   0.608   1.435   1.739  0.4979 -0.5806  0.4848
 4473SOL    HW217664   0.565   1.350   1.732  0.3820 -0.4261 -0.9074
 4473SOL    HW317665   0.536   1.497   1.748  0.3641 -0.3243 -1.8207
 4473SOL    MW417666   0.593   1.432   1.739  0.2552  0.1063 -0.3852
 4474SOL     OW17667   3.086   3.539   5.238  0.3483  0.5572 -0.1718
 4474SOL    HW217668   3.151   3.563   5.304  0.2888 -0.9689  0.4728
 4474SOL    HW317669   3.098   3.445   5.225  0.0207  0.7275 -1.9904
 4474SOL    MW417670   3.096   3.530   5.245  0.0096 -0.5796 -0.5108
 4475SOL     OW17671   1.193   2.645   5.216 -0.1612  0.2107 -0.1621
 4475SOL    HW217672   1.232   2.631   5.129  1.8116  1.5402  0.4301
 4475SOL    HW317673   1.213   2.565   5.264 -1.2503 -0.5300 -0.8767
 4475SOL    MW417674   1.201   2.633   5.211  0.1362 -0.3865  0.2529
 4476SOL     OW17675   1.358   5.996   5.064  0.3431  0.0483 -0.0581
 4476SOL    HW217676   1.362   6.050   4.986 -0.1184  0.2169  0.0323
 4476SOL    HW317677   1.295   6.040   5.121 -1.4348 -1.5026 -0.7074
 4476SOL    MW417678   1.350   6.009   5.061  0.3690 -0.3409  0.1575
 4477SOL     OW17679   1.238   3.298   0.182  0.0116 -0.0945 -0.1780
 4477SOL    HW217680   1.244   3.231   0.250 -0.1377 -0.8327 -0.8747
 4477SOL    HW317681   1.145   3.301   0.160 -0.1945  1.2784  0.7431
 4477SOL    MW417682   1.227   3.289   0.188 -0.6919  0.0539  0.3222
 4478SOL     OW17683   5.646   0.544   3.579 -0.1289 -0.7720 -0.4355
 4478SOL    HW217684   5.577   0.596   3.620  0.6151 -0.1638  0.0791
 4478SOL    HW317685   5.604   0.503   3.503 -1.6619 -2.3091  1.1700
 4478SOL    MW417686   5.632   0.545   3.574 -0.3957  0.6200 -0.7057
 4479SOL     OW17687   1.531   4.253   3.950 -0.0425 -0.1133  0.6626
 4479SOL    HW217688   1.442   4.287   3.961  0.5375  2.0197 -0.7196
 4479SOL    HW317689   1.576   4.319   3.898  1.6504 -2.3185 -0.8623
 4479SOL    MW417690   1.525   4.266   3.945  0.6226  0.2985 -1.1724
 4480SOL     OW17691   0.281   2.897   4.689 -0.2260  0.3269  0.3066
 4480SOL    HW217692   0.207   2.850   4.650  0.2890 -0.7965  0.6447
 4480SOL    HW317693   0.305   2.962   4.623 -0.4405 -0.4167 -0.5334
 4480SOL    MW417694   0.274   2.899   4.675 -0.1210  0.6247  0.2478
 4481SOL     OW17695   1.903   1.523   0.831 -0.6698 -0.3629 -0.0696
 4481SOL    HW217696   1.962   1.583   0.876 -0.8965 -0.0016 -0.2452
 4481SOL    HW317697   1.923   1.536   0.738 -2.0769  0.9123 -0.2381
 4481SOL    MW417698   1.913   1.533   0.824 -0.2933  0.1129  0.4107
 4482SOL     OW17699   0.134   3.215   4.472  0.0236 -0.0127 -0.0900
 4482SOL    HW217700   0.100   3.303   4.487 -0.5034  0.2218 -2.2362
 4482SOL    HW317701   0.227   3.229   4.454  0.5046 -0.2226  1.9686
 4482SOL    MW417702   0.142   3.229   4.471  0.6309  0.3447  0.1996
 4483SOL     OW17703   3.074   4.639   5.416 -0.2448 -0.4006 -0.2946
 4483SOL    HW217704   3.146   4.576   5.419 -0.9885 -1.2684 -0.2205
 4483SOL    HW317705   3.051   4.654   5.508  0.5078  0.6719 -0.2686
 4483SOL    MW417706   3.080   4.632   5.428  0.3734 -0.1036  0.0015
 4484SOL     OW17707   1.892   5.494   3.793 -0.1192  0.4554  0.0003
 4484SOL    HW217708   1.960   5.488   3.726  0.2277  0.2310  0.3664
 4484SOL    HW317709   1.940   5.503   3.875 -0.5517  2.2674  0.0907
 4484SOL    MW417710   1.907   5.494   3.795 -0.1796  0.4986  0.2645
 4485SOL     OW17711   2.511   4.198   3.087  0.7263 -0.1557 -0.1226
 4485SOL    HW217712   2.578   4.266   3.081  0.7352  0.0770  1.8913
 4485SOL    HW317713   2.438   4.231   3.035  0.8784  1.2358  0.4968
 4485SOL    MW417714   2.510   4.211   3.080  0.6599 -0.3154 -0.5332
 4486SOL     OW17715   3.264   2.507   1.238  0.7478 -0.4337 -0.1409
 4486SOL    HW217716   3.316   2.461   1.172  0.2157 -0.5044 -0.5172
 4486SOL    HW317717   3.304   2.482   1.321  2.0371  0.4111 -0.4682
 4486SOL    MW417718   3.276   2.498   1.240 -1.2159 -1.0278  0.8888
 4487SOL     OW17719   1.205   2.347   5.238  0.1432 -0.1885 -0.5627
 4487SOL    HW217720   1.113   2.351   5.267 -0.0395 -3.8041 -0.1286
 4487SOL    HW317721   1.255   2.333   5.318  1.0309  0.8805 -0.8985
 4487SOL    MW417722   1.199   2.346   5.252 -0.0693  0.2750 -0.1703
 4488SOL     OW17723   1.254   1.817   2.963 -0.2194  0.0749  0.2853
 4488SOL    HW217724   1.328   1.845   2.910  1.4211  0.6429  2.7186
 4488SOL    HW317725   1.191   1.889   2.958  0.3319  0.5289 -0.1133
 4488SOL    MW417726   1.255   1.830   2.956 -0.1878  0.5923 -0.4356
 4489SOL     OW17727   2.752   5.209   2.413 -0.2155  0.0842  0.2284
 4489SOL    HW217728   2.718   5.223   2.324  1.5478  1.1823 -0.3188
 4489SOL    HW317729   2.687   5.152   2.455 -1.0916 -0.4669 -1.7609
 4489SOL    MW417730   2.739   5.203   2.407  0.0608  0.8678  0.1221
 4490SOL     OW17731   2.383   3.528   6.388  0.3118 -0.1368  0.0838
 4490SOL    HW217732   2.470   3.568   6.381 -0.3072  1.2389 -0.0168
 4490SOL    HW317733   2.367   3.524   6.482  0.5118 -0.4945  0.1077
 4490SOL    MW417734   2.393   3.533   6.400 -0.1118  0.2604  0.2528
 4491SOL     OW17735   2.629   1.203   3.860  0.2719 -0.0432  0.2329
 4491SOL    HW217736   2.617   1.177   3.769  0.8055 -1.5160  0.5613
 4491SOL    HW317737   2.709   1.256   3.860  1.3675 -1.6383  0.1025
 4491SOL    MW417738   2.638   1.207   3.848  0.2998 -0.2693  0.3909
 4492SOL     OW17739   5.462   5.937   6.002 -0.3373  0.4878 -0.1207
 4492SOL    HW217740   5.429   5.912   6.088 -0.3728  1.2686  0.0946
 4492SOL    HW317741   5.444   6.030   5.995 -0.8747  0.3205 -1.2173
 4492SOL    MW417742   5.455   5.946   6.012  0.3969  0.1710  0.2468
 4493SOL     OW17743   4.069   1.035   2.513  0.5168  0.0120  0.0487
 4493SOL    HW217744   4.064   0.953   2.561 -4.6690 -0.5147 -0.8004
 4493SOL    HW317745   4.142   1.022   2.451  1.8247 -2.6332  1.9404
 4493SOL    MW417746   4.078   1.022   2.511  0.6229  0.3831  0.4420
 4494SOL     OW17747   1.911   0.292   0.322  0.0235 -1.3079 -0.3199
 4494SOL    HW217748   1.867   0.248   0.394 -1.5999  0.1176 -0.3639
 4494SOL    HW317749   1.849   0.360   0.294  2.0119  0.4066 -0.8198
 4494SOL    MW417750   1.897   0.295   0.328 -0.0974 -0.1252  0.0954
 4495SOL     OW17751   1.095   3.052   1.140  0.2166 -0.1289 -0.2815
 4495SOL    HW217752   1.095   3.071   1.233  0.4653 -0.9108 -0.1190
 4495SOL    HW317753   1.184   3.071   1.111 -0.2946  1.8208 -0.7352
 4495SOL    MW417754   1.107   3.057   1.148 -0.0684 -0.3255 -0.2272
 4496SOL     OW17755   5.806   4.241   6.410  0.1168 -0.8316 -0.4304
 4496SOL    HW217756   5.825   4.307   6.477 -2.1023 -0.9725  0.4204
 4496SOL    HW317757   5.852   4.163   6.441 -0.9416 -0.9228  1.0548
 4496SOL    MW417758   5.815   4.239   6.423  0.2281  0.1145  0.4425
 4497SOL     OW17759   2.931   5.648   4.915 -0.7100  0.6020  0.4776
 4497SOL    HW217760   2.899   5.731   4.950  0.2889  0.5908  1.4614
 4497SOL    HW317761   3.017   5.637   4.955 -1.1755 -1.3205  1.0241
 4497SOL    MW417762   2.938   5.658   4.925 -0.0187  0.4593  0.3420
 4498SOL     OW17763   1.421   3.941   0.817  0.1830  0.4057 -0.4514
 4498SOL    HW217764   1.503   3.989   0.826  1.6723 -2.3066  2.5801
 4498SOL    HW317765   1.446   3.861   0.770 -0.8531 -0.2090  0.0195
 4498SOL    MW417766   1.435   3.937   0.812  0.2458 -0.2402  0.2548
 4499SOL     OW17767   0.084   5.848   3.997  0.5855 -0.2046  0.1659
 4499SOL    HW217768   0.087   5.772   4.056  1.2046 -1.1707 -1.0477
 4499SOL    HW317769   0.172   5.851   3.959  0.1116  0.2120 -0.9157
 4499SOL    MW417770   0.096   5.838   4.000  0.4258 -0.3832 -0.2652
 4500SOL     OW17771   1.468   0.545   0.681  0.2676  0.4644 -0.6173
 4500SOL    HW217772   1.448   0.635   0.706 -0.9785  0.3863 -1.2591
 4500SOL    HW317773   1.484   0.549   0.587  2.6814  0.3888 -0.2819
 4500SOL    MW417774   1.468   0.557   0.672 -0.6727 -0.0911  0.1053
 4501SOL     OW17775   3.464   5.494   4.389 -0.0631 -0.5720  0.1669
 4501SOL    HW217776   3.519   5.570   4.373  0.2539 -0.9285 -0.5018
 4501SOL    HW317777   3.466   5.482   4.484 -0.3365  0.4060  0.3069
 4501SOL    MW417778   3.471   5.502   4.399  0.0285  0.0649  0.0282
 4502SOL     OW17779   4.833   2.393   2.618  0.1962  0.4449 -0.1720
 4502SOL    HW217780   4.822   2.480   2.580  0.4745  0.9413  0.8488
 4502SOL    HW317781   4.753   2.378   2.668  0.3288  0.2878 -0.0063
 4502SOL    MW417782   4.821   2.403   2.619 -0.0167 -0.3618 -0.7253
 4503SOL     OW17783   3.578   4.072   0.534 -0.3004 -0.4305  0.4117
 4503SOL    HW217784   3.651   4.048   0.478  0.4377 -0.3070  1.3067
 4503SOL    HW317785   3.568   4.166   0.522 -0.6274 -0.5177 -0.0599
 4503SOL    MW417786   3.586   4.081   0.525  0.0920  0.1029  0.3687
 4504SOL     OW17787   0.380   4.615   6.196 -0.1906  0.2135 -0.2129
 4504SOL    HW217788   0.313   4.658   6.250 -0.3380  0.4135 -0.5524
 4504SOL    HW317789   0.463   4.643   6.234 -0.2952  0.0746  0.1259
 4504SOL    MW417790   0.382   4.625   6.208 -0.0076 -0.2402  0.2898
 4505SOL     OW17791   2.148   5.338   0.826  0.1051  0.3187 -0.0424
 4505SOL    HW217792   2.227   5.348   0.878 -0.4284 -1.3182  1.1271
 4505SOL    HW317793   2.178   5.303   0.742  0.6227 -0.2574  0.3833
 4505SOL    MW417794   2.162   5.335   0.821  0.7727 -0.0050 -0.2775
 4506SOL     OW17795   4.774   4.599   0.582  0.1498  0.2681  0.4544
 4506SOL    HW217796   4.852   4.641   0.620  0.5025 -0.4029  0.4834
 4506SOL    HW317797   4.784   4.506   0.603 -0.4911  0.1265  0.1573
 4506SOL    MW417798   4.786   4.593   0.590  0.1227  0.1267 -0.3001
 4507SOL     OW17799   4.301   1.495   3.455  0.2327  0.4659 -0.6338
 4507SOL    HW217800   4.330   1.404   3.458 -0.7612  0.1193 -1.1067
 4507SOL    HW317801   4.381   1.546   3.462  0.6389 -0.4015  2.1868
 4507SOL    MW417802   4.315   1.490   3.456  0.1388 -0.5798  0.1634
 4508SOL     OW17803   3.026   1.524   0.991  0.1663 -0.2910  0.1699
 4508SOL    HW217804   3.066   1.437   0.979 -0.2691 -0.4538 -0.1287
 4508SOL    HW317805   2.974   1.516   1.071 -1.3838 -0.8918 -0.8417
 4508SOL    MW417806   3.025   1.511   1.000 -0.0706 -0.2245  0.8700
 4509SOL     OW17807   0.392   4.978   1.487 -0.3272 -0.2560  0.1223
 4509SOL    HW217808   0.367   4.908   1.427  1.7012  0.8232 -2.1452
 4509SOL    HW317809   0.332   5.050   1.466  0.7622  0.3250 -1.1083
 4509SOL    MW417810   0.381   4.979   1.476  0.5910  0.3256 -0.0654
 4510SOL     OW17811   0.283   6.270   3.465  0.5742 -0.0515  0.0051
 4510SOL    HW217812   0.378   6.271   3.462  0.5929 -1.1936 -1.0484
 4510SOL    HW317813   0.261   6.257   3.557  1.4940 -1.1611  0.0948
 4510SOL    MW417814   0.293   6.268   3.476  0.8043 -0.0532  0.2116
 4511SOL     OW17815   4.855   1.889   2.306 -0.2288  0.2096  0.1200
 4511SOL    HW217816   4.790   1.948   2.267  0.9033  1.1773 -0.3824
 4511SOL    HW317817   4.902   1.943   2.368 -0.7146 -0.8246  1.4342
 4511SOL    MW417818   4.853   1.904   2.309  0.2499 -0.3179  0.4972
 4512SOL     OW17819   5.449   4.896   5.194 -0.1070 -0.0531  0.0347
 4512SOL    HW217820   5.405   4.948   5.261  0.7301 -0.1746  0.7001
 4512SOL    HW317821   5.499   4.960   5.143 -1.0776  0.0971 -0.7799
 4512SOL    MW417822   5.450   4.911   5.196  0.1226  0.4571 -0.2658
 4513SOL     OW17823   1.582   0.150   0.404  0.2802  0.4287 -0.5015
 4513SOL    HW217824   1.548   0.060   0.402  2.1677 -0.4180  1.2119
 4513SOL    HW317825   1.663   0.143   0.454  0.6526  3.0674 -0.6136
 4513SOL    MW417826   1.588   0.137   0.410  0.6008 -0.5688  0.2650
 4514SOL     OW17827   0.928   2.439   5.982 -0.2702 -0.3162  0.0736
 4514SOL    HW217828   0.870   2.395   5.919  1.6506 -1.6091 -0.8691
 4514SOL    HW317829   0.894   2.412   6.068 -0.8600 -1.3367 -0.4560
 4514SOL    MW417830   0.916   2.430   5.985 -0.4615 -0.6220  0.3506
 4515SOL     OW17831   5.057   2.217   4.273  0.2718 -0.4361 -0.2863
 4515SOL    HW217832   5.072   2.259   4.358 -0.5153  1.1697 -0.9055
 4515SOL    HW317833   4.967   2.187   4.276 -0.7890  2.2758 -1.5533
 4515SOL    MW417834   5.047   2.219   4.285  0.2214 -0.1898 -0.6721
 4516SOL     OW17835   2.552   0.858   0.430 -0.2149 -0.0946  0.2693
 4516SOL    HW217836   2.480   0.916   0.455  0.0928 -0.3967  1.9511
 4516SOL    HW317837   2.627   0.916   0.423 -0.5270  0.1787 -1.2295
 4516SOL    MW417838   2.552   0.874   0.433 -0.0676  0.2524  0.4287
 4517SOL     OW17839   4.602   1.035   2.055  0.5573  0.2205  0.1396
 4517SOL    HW217840   4.598   1.078   2.141 -2.0544 -0.3804  0.4038
 4517SOL    HW317841   4.578   1.104   1.993 -0.2759  0.0198  0.2185
 4517SOL    MW417842   4.598   1.050   2.058 -0.3317  0.0407  0.1693
 4518SOL     OW17843   0.648   4.228   5.213  0.1521 -0.2346 -0.4719
 4518SOL    HW217844   0.683   4.304   5.166  2.2169  0.4199  1.8691
 4518SOL    HW317845   0.709   4.157   5.192 -0.3563 -0.6076 -0.7097
 4518SOL    MW417846   0.661   4.229   5.204  0.4902  0.8439  0.1422
 4519SOL     OW17847   0.215   0.619   3.482 -0.0876  0.1400  0.6105
 4519SOL    HW217848   0.154   0.690   3.463  0.6939  0.5617 -0.3901
 4519SOL    HW317849   0.296   0.663   3.506  0.3928 -0.4045  0.0092
 4519SOL    MW417850   0.217   0.634   3.482 -0.4598 -0.1595  0.2765
 4520SOL     OW17851   3.616   3.459   3.249  0.6202  0.4030  0.1462
 4520SOL    HW217852   3.696   3.423   3.289 -0.4961 -1.2208  1.0072
 4520SOL    HW317853   3.648   3.528   3.191  2.7569 -0.8883 -0.3330
 4520SOL    MW417854   3.631   3.463   3.247 -0.6413  0.4176  0.1153
 4521SOL     OW17855   5.624   3.707   0.863  0.3583  0.2592 -0.2533
 4521SOL    HW217856   5.671   3.680   0.942 -0.4374  0.2342  0.2151
 4521SOL    HW317857   5.547   3.754   0.895 -0.7862 -1.0669 -0.9762
 4521SOL    MW417858   5.620   3.710   0.877 -0.4519 -0.0893  0.5033
 4522SOL     OW17859   0.938   4.754   3.927  0.7557  0.0137 -0.1751
 4522SOL    HW217860   1.005   4.687   3.940  1.5394  0.8948  0.4138
 4522SOL    HW317861   0.904   4.773   4.014  1.1179  0.9598 -0.2272
 4522SOL    MW417862   0.942   4.748   3.940  0.3517 -0.0865  0.3130
 4523SOL     OW17863   3.794   1.586   0.526 -0.3328 -0.2974  0.6791
 4523SOL    HW217864   3.829   1.588   0.616 -0.2741 -0.9937  0.6758
 4523SOL    HW317865   3.853   1.644   0.477 -0.5910  0.3918  1.1609
 4523SOL    MW417866   3.807   1.594   0.532 -0.2532 -0.6207  0.7900
 4524SOL     OW17867   2.251   4.498   1.964 -0.3636 -0.1714  0.4163
 4524SOL    HW217868   2.165   4.498   2.006 -1.6122  0.5806 -1.9156
 4524SOL    HW317869   2.280   4.407   1.967 -1.7146 -0.6290  0.3821
 4524SOL    MW417870   2.244   4.486   1.970 -0.5214 -0.2404  0.7233
 4525SOL     OW17871   2.472   2.315   0.332  0.3297 -0.3457  0.3400
 4525SOL    HW217872   2.453   2.232   0.287 -2.4959 -0.0173  0.7598
 4525SOL    HW317873   2.555   2.299   0.376  0.9014 -2.2419 -1.2678
 4525SOL    MW417874   2.480   2.302   0.332 -0.3457  0.3212 -0.0310
 4526SOL     OW17875   0.976   3.282   5.667  0.1140 -0.4330  0.3862
 4526SOL    HW217876   0.898   3.233   5.643  0.7111 -1.1019 -0.2337
 4526SOL    HW317877   0.947   3.344   5.734 -1.0805 -0.2214 -0.3103
 4526SOL    MW417878   0.962   3.284   5.672 -0.2532 -0.2999 -0.3087
 4527SOL     OW17879   5.033   5.711   2.628 -0.3092  0.0454 -0.5919
 4527SOL    HW217880   5.048   5.649   2.557 -2.3952  0.2201 -1.2617
 4527SOL    HW317881   5.085   5.788   2.603  1.7982 -1.1441 -0.0675
 4527SOL    MW417882   5.041   5.713   2.615  0.3200 -0.8659 -0.2634
 4528SOL     OW17883   0.679   4.037   1.496 -0.7524 -0.5319 -0.0165
 4528SOL    HW217884   0.733   3.998   1.426  1.5064 -1.7489  2.2426
 4528SOL    HW317885   0.693   4.131   1.488 -1.1739 -0.5622 -1.6170
 4528SOL    MW417886   0.688   4.044   1.486 -0.1245 -0.0922  0.3375
 4529SOL     OW17887   5.952   2.148   1.583 -0.2590  0.1707 -0.4404
 4529SOL    HW217888   5.875   2.098   1.556 -0.8990 -0.2511  1.9471
 4529SOL    HW317889   5.916   2.230   1.618  0.5485  0.7807 -0.9774
 4529SOL    MW417890   5.937   2.152   1.584 -0.1428  0.0799 -0.1150
 4530SOL     OW17891   1.341   2.937   5.277 -0.2851  0.2616 -0.0806
 4530SOL    HW217892   1.378   3.021   5.250 -0.2016  0.8722  1.7861
 4530SOL    HW317893   1.402   2.872   5.243  0.5358  1.0495 -0.1486
 4530SOL    MW417894   1.354   2.940   5.269 -0.2510 -0.1228 -0.2304
 4531SOL     OW17895   4.036   2.719   6.072  0.5488 -0.1655  0.1606
 4531SOL    HW217896   4.064   2.634   6.107  0.4045  0.2671  1.3882
 4531SOL    HW317897   3.964   2.746   6.129  0.1472  0.4720 -0.6343
 4531SOL    MW417898   4.030   2.712   6.084 -0.4918  0.3360 -0.6249
 4532SOL     OW17899   4.948   1.751   0.312  0.0531  0.0133  0.1299
 4532SOL    HW217900   4.977   1.719   0.226  0.5747 -1.0311  0.6726
 4532SOL    HW317901   5.028   1.756   0.364 -0.2624  0.6030  0.5658
 4532SOL    MW417902   4.963   1.747   0.308  0.2107  0.6665  0.3928
 4533SOL     OW17903   0.075   2.790   1.384  0.1830  0.2856 -0.2051
 4533SOL    HW217904   0.161   2.748   1.392 -0.1713 -0.6013 -0.8670
 4533SOL    HW317905   0.015   2.718   1.365 -0.1482  1.2788 -3.6151
 4533SOL    MW417906   0.078   2.775   1.383  0.4404 -0.1523  0.1382
 4534SOL     OW17907   1.493   2.664   4.176  0.1599  0.0452  0.3218
 4534SOL    HW217908   1.502   2.569   4.182 -1.2334 -0.0466  1.5312
 4534SOL    HW317909   1.573   2.698   4.215  1.1846 -0.5847 -1.1054
 4534SOL    MW417910   1.504   2.656   4.182 -0.8003 -0.1083 -0.0959
 4535SOL     OW17911   0.304   2.894   5.970 -0.4545  0.0877  0.2619
 4535SOL    HW217912   0.259   2.970   6.007 -0.4009  0.3841 -0.2789
 4535SOL    HW317913   0.339   2.924   5.887  0.8594 -0.1137  0.7252
 4535SOL    MW417914   0.303   2.908   5.964  0.0559  0.0981 -0.7228
 4536SOL     OW17915   6.193   2.192   2.972  1.0279  0.0358  0.3649
 4536SOL    HW217916   6.248   2.171   3.047  0.1703 -0.8126  0.7818
 4536SOL    HW317917   6.183   2.108   2.926  1.8735  0.6192 -0.9331
 4536SOL    MW417918   6.199   2.178   2.976 -0.5228  0.1785  0.1815
 4537SOL     OW17919   2.181   5.886   4.939 -0.3379 -0.2506  0.1353
 4537SOL    HW217920   2.100   5.915   4.982 -0.8134 -1.2953 -0.0115
 4537SOL    HW317921   2.179   5.928   4.853  0.1484  1.0998  0.7657
 4537SOL    MW417922   2.170   5.895   4.934  0.4269 -0.0760 -0.7083
 4538SOL     OW17923   5.484   1.536   2.420  0.0620 -0.1854  0.0753
 4538SOL    HW217924   5.405   1.556   2.371 -1.8120 -2.0488  2.0988
 4538SOL    HW317925   5.500   1.443   2.405  1.7262  0.0864 -0.0498
 4538SOL    MW417926   5.476   1.526   2.412  0.0656  0.0597  0.0119
 4539SOL     OW17927   0.011   2.112   4.368 -0.5103  0.4017  0.0652
 4539SOL    HW217928  -0.043   2.122   4.289 -1.4251  1.8184  0.8321
 4539SOL    HW317929   0.076   2.182   4.361 -1.3262  1.3053  1.1056
 4539SOL    MW417930   0.012   2.123   4.356 -0.3541 -0.5794  0.0417
 4540SOL     OW17931   3.638   5.329   1.038  0.3680  0.4293  0.2423
 4540SOL    HW217932   3.672   5.398   0.980 -1.5752 -0.4020 -2.0578
 4540SOL    HW317933   3.698   5.256   1.024 -0.6592 -0.1174 -1.6448
 4540SOL    MW417934   3.651   5.329   1.028 -0.2940 -0.2229  0.1619
 4541SOL     OW17935   1.951   2.171   3.341  0.2129  0.0223 -0.0951
 4541SOL    HW217936   1.931   2.209   3.426 -2.3902  0.2165 -0.7158
 4541SOL    HW317937   1.921   2.236   3.277  0.0149 -1.0487 -1.1488
 4541SOL    MW417938   1.944   2.184   3.344 -0.2310 -0.2347 -0.1674
 4542SOL     OW17939   4.135   3.565   3.198  0.3592 -0.0353  0.5570
 4542SOL    HW217940   4.102   3.539   3.112 -0.1879  0.0338  0.7403
 4542SOL    HW317941   4.172   3.485   3.235 -1.5796 -0.6685  1.2390
 4542SOL    MW417942   4.135   3.551   3.192 -0.0290  0.2399  0.1026
 4543SOL     OW17943   2.415   6.188   0.622  0.5101 -0.1322 -0.0579
 4543SOL    HW217944   2.477   6.116   0.623  1.1209  0.3872  0.6575
 4543SOL    HW317945   2.429   6.232   0.538  1.1168 -0.0174  0.0994
 4543SOL    MW417946   2.425   6.185   0.611 -0.3696  0.0564 -0.5244
 4544SOL     OW17947   4.253   3.244   5.579 -0.1604 -0.7305  0.0533
 4544SOL    HW217948   4.298   3.314   5.628 -0.0937  0.3693 -1.5222
 4544SOL    HW317949   4.167   3.237   5.621 -0.2956  0.5508  0.0124
 4544SOL    MW417950   4.248   3.252   5.591  0.0561 -0.3493  0.2150
 4545SOL     OW17951   2.903   1.880   5.236  0.2623 -0.5354 -0.0044
 4545SOL    HW217952   2.933   1.963   5.275  1.3169 -1.1437  0.5095
 4545SOL    HW317953   2.832   1.851   5.294  0.8370 -0.6931  0.6335
 4545SOL    MW417954   2.897   1.887   5.249  0.6488  0.2549 -0.7498
 4546SOL     OW17955   3.725   2.503   6.140  0.1744  0.2201  0.6591
 4546SOL    HW217956   3.690   2.571   6.197  0.1566 -0.0670  0.9935
 4546SOL    HW317957   3.647   2.459   6.106  0.1965 -0.0251  0.9232
 4546SOL    MW417958   3.710   2.506   6.143 -0.1980  0.6074  0.2614
 4547SOL     OW17959   3.369   0.717   5.450  0.1281 -0.0082  0.5322
 4547SOL    HW217960   3.368   0.740   5.544  0.4381  2.0827  0.0807
 4547SOL    HW317961   3.277   0.710   5.427  0.0446 -1.7948  1.2242
 4547SOL    MW417962   3.357   0.719   5.460 -0.3818 -0.1223 -0.1042
 4548SOL     OW17963   1.961   1.135   2.822  0.1412  0.4962 -0.0251
 4548SOL    HW217964   1.948   1.160   2.731 -1.6105 -0.9683 -0.2404
 4548SOL    HW317965   2.049   1.097   2.824 -0.1247 -0.2489 -1.3143
 4548SOL    MW417966   1.971   1.133   2.810  0.0703 -0.3602  0.1436
 4549SOL     OW17967   3.662   6.161   1.401  0.4710 -0.3532 -0.5904
 4549SOL    HW217968   3.655   6.183   1.494 -0.3708 -3.3005  0.1569
 4549SOL    HW317969   3.717   6.230   1.364 -0.1792  1.5845  1.8128
 4549SOL    MW417970   3.669   6.173   1.409 -0.6580 -0.0970 -0.0445
 4550SOL     OW17971   3.840   5.713   1.470  0.1199  0.1406  0.0004
 4550SOL    HW217972   3.866   5.748   1.556  2.0048 -0.4078 -0.2938
 4550SOL    HW317973   3.897   5.637   1.458 -0.2343  0.1129 -1.6766
 4550SOL    MW417974   3.851   5.707   1.480  0.1832  0.0400  0.2081
 4551SOL     OW17975   3.971   1.976   1.871  0.1967 -0.4368  0.3441
 4551SOL    HW217976   3.919   1.986   1.791  0.3441  1.9171  0.4759
 4551SOL    HW317977   3.951   1.888   1.902 -0.5278 -1.0913 -1.8055
 4551SOL    MW417978   3.962   1.966   1.864  0.9078  0.0992 -0.0623
 4552SOL     OW17979   5.974  -0.010   1.406 -0.2156 -0.3025 -0.0993
 4552SOL    HW217980   5.922   0.008   1.485  0.6550  4.1368 -0.2388
 4552SOL    HW317981   6.058  -0.039   1.439 -0.7544 -1.3448  0.4100
 4552SOL    MW417982   5.978  -0.011   1.421 -0.0998 -0.5353  0.2174
 4553SOL     OW17983   0.529   0.165   0.530 -0.5449  0.1071  0.6421
 4553SOL    HW217984   0.543   0.109   0.454  0.3866 -0.1054  0.9575
 4553SOL    HW317985   0.448   0.133   0.569 -0.7279 -0.1452  0.0707
 4553SOL    MW417986   0.520   0.154   0.525  0.5865 -0.0312 -0.1637
 4554SOL     OW17987   3.348   0.905   5.711 -0.0067 -0.1034  0.1006
 4554SOL    HW217988   3.285   0.920   5.641 -0.7381  0.4562  0.8556
 4554SOL    HW317989   3.295   0.871   5.784  0.7609 -0.8412  0.3332
 4554SOL    MW417990   3.333   0.903   5.711 -0.3716  0.4657  0.1961
 4555SOL     OW17991   5.539   5.416   0.332  0.5062 -0.3433 -0.4103
 4555SOL    HW217992   5.580   5.354   0.392  0.2683 -0.9731 -0.8827
 4555SOL    HW317993   5.445   5.408   0.351  0.4125 -0.6929 -0.9853
 4555SOL    MW417994   5.532   5.406   0.342 -0.3652 -0.4027  0.2478
 4556SOL     OW17995   4.982   1.568   2.017 -0.1836 -0.4630  0.5939
 4556SOL    HW217996   4.979   1.479   2.052 -0.4810 -0.8859 -0.4774
 4556SOL    HW317997   4.935   1.621   2.081  0.0122 -1.0687  1.2477
 4556SOL    MW417998   4.976   1.563   2.030  0.0736 -0.5678 -0.5025
 4557SOL     OW17999   2.017   3.569   3.562  0.7291 -0.0353  0.8170
 4557SOL    HW218000   1.936   3.529   3.530  0.5277  1.3312 -0.5259
 4557SOL    HW318001   2.065   3.498   3.602 -0.3193 -1.2725 -0.0345
 4557SOL    MW418002   2.012   3.555   3.563  0.0082  0.1030 -0.2108
 4558SOL     OW18003   1.652   4.301   4.901 -0.0974 -0.0997 -0.3556
 4558SOL    HW218004   1.564   4.276   4.927 -0.3955  0.9842 -0.3034
 4558SOL    HW318005   1.703   4.295   4.982 -0.1538 -0.5654 -0.3517
 4558SOL    MW418006   1.647   4.297   4.915 -0.2920 -0.3276  0.3330
 4559SOL     OW18007   4.743   0.862   4.215  1.4371 -0.1086  0.1724
 4559SOL    HW218008   4.700   0.779   4.194 -0.1249  0.9770 -1.2465
 4559SOL    HW318009   4.736   0.869   4.311 -0.0465 -0.8047  0.1470
 4559SOL    MW418010   4.736   0.852   4.225  1.0569 -0.4083  0.3921
 4560SOL     OW18011   0.765   3.498   1.789 -0.3706 -0.5564 -0.3921
 4560SOL    HW218012   0.709   3.525   1.862 -2.2156 -3.5746 -0.4874
 4560SOL    HW318013   0.846   3.467   1.830 -0.9180 -1.1043  0.2991
 4560SOL    MW418014   0.768   3.497   1.804 -0.8518  0.1656 -0.2979
 4561SOL     OW18015   0.640   5.493   1.402 -0.3675  0.3535 -0.0443
 4561SOL    HW218016   0.634   5.403   1.434  1.6534  0.0959 -0.2603
 4561SOL    HW318017   0.685   5.540   1.472 -0.5876  0.9989 -0.3255
 4561SOL    MW418018   0.645   5.487   1.416  0.4481  0.3707  0.3224
 4562SOL     OW18019   3.073   3.272   5.162  0.4394  0.5668  0.6431
 4562SOL    HW218020   3.108   3.189   5.196 -0.4309 -0.6851 -1.3302
 4562SOL    HW318021   3.080   3.263   5.067 -0.7746  2.2872  0.3607
 4562SOL    MW418022   3.079   3.260   5.154 -0.2259 -0.3172 -0.0297
 4563SOL     OW18023   0.161   3.096   5.716  0.2185 -0.1325 -0.0529
 4563SOL    HW218024   0.252   3.103   5.688 -0.0348  3.2786 -0.3745
 4563SOL    HW318025   0.145   3.175   5.767 -2.3682 -1.0144  0.6455
 4563SOL    MW418026   0.171   3.107   5.719  0.0360 -0.3829  0.4346
 4564SOL     OW18027   4.667   3.950   1.114  0.1931 -0.3276  0.0697
 4564SOL    HW218028   4.738   3.925   1.054 -0.8286 -0.6356 -1.0472
 4564SOL    HW318029   4.705   3.941   1.201  1.9020  0.6668 -0.5160
 4564SOL    MW418030   4.682   3.946   1.117 -0.0103 -0.7141 -0.2094
 4565SOL     OW18031   6.222   0.878   4.238  0.0730 -0.3748  0.0357
 4565SOL    HW218032   6.132   0.852   4.258  0.5153 -2.4317 -0.4171
 4565SOL    HW318033   6.255   0.914   4.320 -0.6320 -1.2296  0.7191
 4565SOL    MW418034   6.215   0.879   4.252 -0.2147 -0.0982 -0.4384
 4566SOL     OW18035   2.274   3.710   6.209 -0.4343  0.4150 -0.3842
 4566SOL    HW218036   2.346   3.773   6.201 -0.4285  0.2249 -2.5386
 4566SOL    HW318037   2.301   3.651   6.278  1.3835  0.5027 -0.9704
 4566SOL    MW418038   2.287   3.711   6.217 -0.6357  0.0845 -0.1330
 4567SOL     OW18039   1.701   4.868   2.624 -0.2358 -0.0021  0.4660
 4567SOL    HW218040   1.722   4.801   2.558  1.5478  0.5018  0.4768
 4567SOL    HW318041   1.652   4.821   2.691  1.7826 -1.5534  0.9386
 4567SOL    MW418042   1.697   4.853   2.624  0.1886  0.2019 -0.1228
 4568SOL     OW18043   2.811   2.687   6.050  0.1783  0.5160 -0.2778
 4568SOL    HW218044   2.852   2.762   6.007 -1.5555  1.2253 -0.7813
 4568SOL    HW318045   2.883   2.642   6.094  1.4908  1.5989 -1.2546
 4568SOL    MW418046   2.826   2.691   6.050  0.4508  0.3675  0.0023
 4569SOL     OW18047   5.187   0.722   6.237  0.9244  0.5716 -0.1610
 4569SOL    HW218048   5.095   0.711   6.212  1.2718  1.7506 -2.1041
 4569SOL    HW318049   5.199   0.817   6.243  1.6996  0.4033  1.4563
 4569SOL    MW418050   5.176   0.733   6.235 -0.2895  0.4951  0.1417
 4570SOL     OW18051   4.627   6.222   5.702  0.2677 -0.4260  0.4629
 4570SOL    HW218052   4.631   6.126   5.709 -1.2150 -0.6253 -0.8712
 4570SOL    HW318053   4.544   6.245   5.743  0.2080  0.1914  0.0076
 4570SOL    MW418054   4.617   6.212   5.708 -0.2699 -0.7282 -0.6345
 4571SOL     OW18055   4.923   4.589   4.091  0.0095  0.5681 -0.2493
 4571SOL    HW218056   4.897   4.505   4.129 -3.2779  1.0732 -1.0313
 4571SOL    HW318057   4.870   4.596   4.012  1.0317  2.8954 -0.8068
 4571SOL    MW418058   4.912   4.579   4.086 -0.3277  0.4323 -0.1594
 4572SOL     OW18059   1.429   1.998   0.175 -0.8560 -0.5733  0.2556
 4572SOL    HW218060   1.351   2.043   0.143 -0.5945 -1.8024 -2.3575
 4572SOL    HW318061   1.503   2.048   0.140 -0.5335 -1.4765 -0.3920
 4572SOL    MW418062   1.429   2.010   0.167  0.0300  0.4910  0.3608
 4573SOL     OW18063   6.035   3.161   1.608  0.5845 -0.0180  0.0702
 4573SOL    HW218064   5.973   3.096   1.642  0.1970  0.8738  1.1607
 4573SOL    HW318065   6.119   3.138   1.648  0.5907 -0.2577 -0.0861
 4573SOL    MW418066   6.038   3.150   1.618 -0.1575 -0.4394 -0.1629
 4574SOL     OW18067   5.100   4.507   4.973 -0.0756 -0.2181 -0.2420
 4574SOL    HW218068   5.100   4.480   5.065 -1.0533 -1.5144 -0.5826
 4574SOL    HW318069   5.028   4.457   4.934 -1.6218  2.5020 -1.1080
 4574SOL    MW418070   5.091   4.497   4.980 -0.5945  0.3346 -0.4848
 4575SOL     OW18071   5.859   3.621   3.370 -0.4005 -0.7183 -0.3304
 4575SOL    HW218072   5.798   3.573   3.427  0.9081 -1.1447  0.7915
 4575SOL    HW318073   5.871   3.563   3.295 -0.4979 -1.1630 -0.0116
 4575SOL    MW418074   5.853   3.607   3.368  0.3970  0.5617 -0.0072
 4576SOL     OW18075   1.181   0.615   2.486  0.0031 -0.3437 -0.1482
 4576SOL    HW218076   1.092   0.614   2.521  0.0394 -0.6413 -0.0624
 4576SOL    HW318077   1.171   0.589   2.394 -0.1416  0.8439 -0.4901
 4576SOL    MW418078   1.168   0.612   2.478 -0.2312  0.4147 -0.2138
 4577SOL     OW18079   2.456   3.824   0.466  0.0569  0.0725 -0.2705
 4577SOL    HW218080   2.510   3.900   0.447  0.2033  0.1427  0.3951
 4577SOL    HW318081   2.458   3.816   0.562  1.3652 -1.7263 -0.3950
 4577SOL    MW418082   2.463   3.833   0.476  0.3106 -0.0353 -0.0775
 4578SOL     OW18083   3.587   3.506   1.321  0.1025  0.0357 -0.5094
 4578SOL    HW218084   3.572   3.519   1.228 -1.3107 -1.9162 -0.6163
 4578SOL    HW318085   3.500   3.494   1.358  0.7700 -1.4496  0.6701
 4578SOL    MW418086   3.574   3.506   1.314  0.3742  0.0155 -0.1584
 4579SOL     OW18087   3.721   5.956   3.916  0.2592  0.5319  0.4220
 4579SOL    HW218088   3.647   5.988   3.968  0.6501  0.4358  1.0481
 4579SOL    HW318089   3.703   5.987   3.828 -0.9525 -0.1978  0.3886
 4579SOL    MW418090   3.709   5.964   3.912 -0.0844  0.2241  0.1310
 4580SOL     OW18091   5.059   5.400   1.235 -0.4017  0.0178 -0.7333
 4580SOL    HW218092   5.034   5.322   1.185 -1.9718  0.4107 -0.6220
 4580SOL    HW318093   5.110   5.366   1.309  0.3912 -0.7330 -1.5965
 4580SOL    MW418094   5.062   5.385   1.238  0.0891 -0.4223 -0.2777
 4581SOL     OW18095   3.379   0.836   2.219 -0.1562 -0.3445 -0.2895
 4581SOL    HW218096   3.452   0.844   2.281 -0.2742 -0.5436 -0.1214
 4581SOL    HW318097   3.332   0.757   2.248 -0.7884  0.1177 -0.0263
 4581SOL    MW418098   3.382   0.826   2.231  0.8357 -0.0138 -1.1657
 4582SOL     OW18099   1.569   3.233   6.131  0.3299  0.5079  0.1410
 4582SOL    HW218100   1.640   3.295   6.150 -1.0466  2.8402 -1.6364
 4582SOL    HW318101   1.605   3.175   6.064  0.9291  0.8875  0.1252
 4582SOL    MW418102   1.583   3.234   6.125  0.3381 -0.5590 -0.4892
 4583SOL     OW18103   0.892   0.370   5.751  0.0835  0.5167  0.0177
 4583SOL    HW218104   0.880   0.452   5.702 -1.1760 -0.3175 -1.1341
 4583SOL    HW318105   0.987   0.361   5.758  0.4171  0.0601 -3.4376
 4583SOL    MW418106   0.903   0.380   5.745  0.1809 -0.3266  0.7817
 4584SOL     OW18107   0.453   5.636   1.253  0.1420  0.3033  0.0934
 4584SOL    HW218108   0.398   5.628   1.330  1.9098  0.1959  1.3966
 4584SOL    HW318109   0.529   5.581   1.271  0.5135  0.1186 -1.8139
 4584SOL    MW418110   0.456   5.628   1.265 -0.2521 -0.1176  0.5649
 4585SOL     OW18111   1.360   0.298   6.328 -0.3349  0.4275  0.1563
 4585SOL    HW218112   1.350   0.215   6.281  1.6650  0.4135 -0.3075
 4585SOL    HW318113   1.384   0.361   6.260  0.4515  0.8849  0.8447
 4585SOL    MW418114   1.362   0.295   6.313  0.2758 -0.1444  0.2224
 4586SOL     OW18115   4.734   1.171   0.284 -0.3436 -0.1420 -0.7071
 4586SOL    HW218116   4.652   1.192   0.329 -0.5970  1.1176 -1.6975
 4586SOL    HW318117   4.709   1.109   0.216 -0.2181 -0.8359 -0.1390
 4586SOL    MW418118   4.720   1.165   0.281 -0.0438  0.0561 -0.6862
 4587SOL     OW18119   5.883   4.886   3.579  0.0317  0.5486 -0.1765
 4587SOL    HW218120   5.853   4.933   3.657  0.9681  1.8911 -0.5759
 4587SOL    HW318121   5.808   4.887   3.520 -0.7870 -0.7503  0.7931
 4587SOL    MW418122   5.869   4.893   3.582  0.2511  0.4309  0.5783
 4588SOL     OW18123   5.163   0.126   5.080 -0.0514  0.3439 -0.0785
 4588SOL    HW218124   5.234   0.135   5.016  0.3300  1.1915  0.4370
 4588SOL    HW318125   5.085   0.154   5.033  0.2791  1.2834 -0.0902
 4588SOL    MW418126   5.162   0.131   5.066 -0.6161 -0.1461  0.0668
 4589SOL     OW18127   4.376   3.833   1.903  0.3865  0.1245  0.0167
 4589SOL    HW218128   4.382   3.780   1.824  2.8681 -1.4393  1.1354
 4589SOL    HW318129   4.466   3.849   1.929 -0.3455  1.7678  1.8125
 4589SOL    MW418130   4.388   3.828   1.896  0.2820 -1.0788 -0.0113
 4590SOL     OW18131   0.097   0.062   5.257 -0.2248 -0.1249 -0.3819
 4590SOL    HW218132   0.052   0.066   5.172 -1.6126 -1.5114  0.2384
 4590SOL    HW318133   0.027   0.072   5.321  0.5783 -0.7470  0.6107
 4590SOL    MW418134   0.081   0.064   5.254 -0.3180 -0.0830 -0.2138
 4591SOL     OW18135   1.103   1.146   4.188  0.0413 -0.1321 -0.8784
 4591SOL    HW218136   1.161   1.134   4.113  1.6338  1.6999 -0.0357
 4591SOL    HW318137   1.158   1.127   4.264 -0.4609  1.4972 -0.0595
 4591SOL    MW418138   1.118   1.142   4.189 -0.4718 -0.4960  0.1445
 4592SOL     OW18139   4.088   6.009   0.787  0.0110 -0.1020  0.8153
 4592SOL    HW218140   4.085   6.079   0.852 -1.3274 -0.6877  1.4213
 4592SOL    HW318141   4.107   5.930   0.837  0.3395 -0.3549  0.2987
 4592SOL    MW418142   4.090   6.008   0.802  0.0763  0.2566  0.4184
 4593SOL     OW18143   0.588   5.230   2.668  0.2222  0.7039 -0.1276
 4593SOL    HW218144   0.673   5.240   2.625 -0.0966  1.8280 -0.5340
 4593SOL    HW318145   0.547   5.157   2.621 -0.4871  2.4656 -2.4663
 4593SOL    MW418146   0.594   5.222   2.656 -0.2296 -0.3117  0.2547
 4594SOL     OW18147   6.033   5.776   1.780  0.5381 -0.3540 -0.0393
 4594SOL    HW218148   6.093   5.705   1.805  0.7951  0.3020  1.3181
 4594SOL    HW318149   6.068   5.808   1.697  1.9736 -0.1389  0.6066
 4594SOL    MW418150   6.046   5.770   1.773 -0.5748  0.2248 -0.1137
 4595SOL     OW18151   4.196   5.247   4.998  0.3506 -0.1201 -0.0414
 4595SOL    HW218152   4.257   5.300   5.049  1.5370 -0.2935 -1.2284
 4595SOL    HW318153   4.110   5.288   5.013  0.8595  0.6060  1.0251
 4595SOL    MW418154   4.192   5.260   5.007 -0.2715  0.3279  0.0207
 4596SOL     OW18155   0.326   0.377   4.186  0.2021  0.6110  0.7121
 4596SOL    HW218156   0.383   0.444   4.149  0.3565  1.4441  2.3833
 4596SOL    HW318157   0.238   0.404   4.160  0.4165  0.2416 -0.4532
 4596SOL    MW418158   0.322   0.389   4.178 -0.1391  0.1898  0.4969
 4597SOL     OW18159   1.570   1.335   2.889  0.8611  0.3917 -0.6127
 4597SOL    HW218160   1.617   1.254   2.909  0.7867  0.4427 -0.2114
 4597SOL    HW318161   1.613   1.401   2.943  1.1841  0.7021 -1.2464
 4597SOL    MW418162   1.582   1.333   2.899  0.0355  0.1535 -0.4532
 4598SOL     OW18163   5.085   3.916   2.589  0.3203  0.1885 -0.6265
 4598SOL    HW218164   5.180   3.926   2.583  0.3523  0.5636  0.3563
 4598SOL    HW318165   5.069   3.826   2.560  1.1960 -0.5807  1.1488
 4598SOL    MW418166   5.095   3.906   2.584 -0.4212 -0.5401 -0.0981
 4599SOL     OW18167   3.524   3.577   4.649 -0.3975  0.1354 -0.3201
 4599SOL    HW218168   3.557   3.633   4.579  0.4388  0.8822  0.6300
 4599SOL    HW318169   3.601   3.528   4.678 -0.8593 -0.5988 -0.3019
 4599SOL    MW418170   3.539   3.578   4.644 -0.0147  0.1522 -0.3412
 4600SOL     OW18171   1.116   4.931   6.287  0.6921 -0.2955 -0.0039
 4600SOL    HW218172   1.104   5.024   6.308  0.3521 -0.2647 -0.3185
 4600SOL    HW318173   1.035   4.906   6.242  1.5708 -0.2429 -1.6751
 4600SOL    MW418174   1.104   4.940   6.284  0.4603  0.1278 -0.4513
 4601SOL     OW18175   4.648   2.404   0.992 -0.2536 -0.0049  0.2836
 4601SOL    HW218176   4.649   2.391   0.897 -3.0357 -0.6763  0.2493
 4601SOL    HW318177   4.638   2.498   1.003 -2.2997 -0.1089 -0.2373
 4601SOL    MW418178   4.646   2.414   0.981 -0.4801 -0.0348 -0.4793
 4602SOL     OW18179   4.391   0.049   0.595  0.6986 -0.0087  0.4995
 4602SOL    HW218180   4.349   0.063   0.510  1.2082 -0.9899  0.0749
 4602SOL    HW318181   4.340   0.104   0.656 -0.5709 -0.3868 -0.1769
 4602SOL    MW418182   4.378   0.058   0.592 -0.0108  0.1498 -0.0658
 4603SOL     OW18183   0.351   4.813   3.792 -0.0607  0.1162  0.0452
 4603SOL    HW218184   0.302   4.736   3.765 -3.0081  2.4601 -1.9044
 4603SOL    HW318185   0.305   4.846   3.869 -0.0595  0.9864 -0.3080
 4603SOL    MW418186   0.339   4.808   3.799  0.2603 -0.5219 -0.0249
 4604SOL     OW18187   4.496   0.298   2.797  1.0223 -0.6441  0.0217
 4604SOL    HW218188   4.483   0.388   2.826  2.4628 -1.4721  3.8800
 4604SOL    HW318189   4.583   0.298   2.757  0.9667 -0.3045 -0.0978
 4604SOL    MW418190   4.506   0.310   2.796  0.3164  0.1448 -0.3578
 4605SOL     OW18191   4.754   5.127   3.909 -0.4736 -0.3541  0.8619
 4605SOL    HW218192   4.725   5.144   3.998 -2.2574 -0.5979  0.3600
 4605SOL    HW318193   4.790   5.038   3.911 -0.2751 -0.2644  1.3680
 4605SOL    MW418194   4.755   5.117   3.921 -0.3350 -0.3625  0.7879
 4606SOL     OW18195   3.421   4.099   0.067  0.0378  0.0454 -0.2521
 4606SOL    HW218196   3.357   4.048   0.017 -1.0970 -0.3479  1.5201
 4606SOL    HW318197   3.470   4.033   0.117  3.1928  0.1130 -2.8684
 4606SOL    MW418198   3.419   4.083   0.067  0.6898  0.5324 -0.5724
 4607SOL     OW18199   1.602   2.437   4.617 -0.3123  0.5198  0.0694
 4607SOL    HW218200   1.647   2.355   4.635  0.0043  0.6892  0.0683
 4607SOL    HW318201   1.527   2.412   4.564 -0.6943  0.1356  0.7845
 4607SOL    MW418202   1.598   2.423   4.613 -0.5470  0.0596 -0.3802
 4608SOL     OW18203   4.572   3.253   0.400  0.4197 -0.1853 -0.1774
 4608SOL    HW218204   4.612   3.167   0.410  0.8285  0.1365  1.2196
 4608SOL    HW318205   4.571   3.290   0.489  0.3425  1.2830 -0.7504
 4608SOL    MW418206   4.577   3.247   0.413  0.4785 -0.4848  0.4346
 4609SOL     OW18207   0.623   2.320   1.231  0.0080 -0.0983  0.1388
 4609SOL    HW218208   0.587   2.315   1.142 -0.4517  0.0298  0.3151
 4609SOL    HW318209   0.635   2.414   1.246 -1.2064 -0.0137  0.7141
 4609SOL    MW418210   0.620   2.332   1.221 -0.9750 -0.0808  0.0279
 4610SOL     OW18211   5.693   5.726   4.654 -0.2223  0.4977  0.0373
 4610SOL    HW218212   5.613   5.674   4.651 -1.0361  1.7127 -2.2395
 4610SOL    HW318213   5.728   5.720   4.565  1.3998  1.2252  0.5955
 4610SOL    MW418214   5.687   5.719   4.642  0.3435 -0.5083  0.3141
 4611SOL     OW18215   0.132   0.720   0.582 -0.5084  0.4168  0.5200
 4611SOL    HW218216   0.118   0.807   0.546 -1.6782  0.0550  0.0552
 4611SOL    HW318217   0.107   0.728   0.674 -2.6708  0.1032  0.0030
 4611SOL    MW418218   0.127   0.732   0.589  0.0839  0.2221  0.6392
 4612SOL     OW18219   4.737   0.926   0.471  0.6821  0.0199  0.2733
 4612SOL    HW218220   4.738   1.008   0.422 -0.5883  0.0217  0.2174
 4612SOL    HW318221   4.708   0.950   0.558 -2.9068 -0.7130 -0.5580
 4612SOL    MW418222   4.734   0.940   0.476 -0.4127 -0.2927  0.5770
 4613SOL     OW18223   3.366   5.450   2.524  0.7095  0.2066 -0.3061
 4613SOL    HW218224   3.317   5.398   2.588  0.9129 -0.9456 -1.0491
 4613SOL    HW318225   3.413   5.515   2.576 -0.4277  0.3738  0.5502
 4613SOL    MW418226   3.365   5.452   2.539  0.0319  0.0218 -0.3620
 4614SOL     OW18227   2.481   2.070   5.247 -0.0499 -0.4681  0.5378
 4614SOL    HW218228   2.493   1.976   5.258  0.8495 -0.3438  0.7345
 4614SOL    HW318229   2.409   2.078   5.185 -0.4170 -1.2772  0.8473
 4614SOL    MW418230   2.473   2.059   5.240  0.3355  0.0563  0.2287
 4615SOL     OW18231   2.336   0.179   2.976 -0.3979  0.4789  0.0086
 4615SOL    HW218232   2.283   0.102   2.957 -1.8920  1.4621  0.0910
 4615SOL    HW318233   2.387   0.153   3.053  1.5217 -1.5068 -1.7808
 4615SOL    MW418234   2.336   0.166   2.984  0.6189 -0.1089 -0.5512
 4616SOL     OW18235   4.481   2.484   4.699  0.0097  0.0962  0.4819
 4616SOL    HW218236   4.470   2.390   4.692 -1.6814  0.1135  2.1437
 4616SOL    HW318237   4.474   2.503   4.793  2.5176  1.6654  0.4480
 4616SOL    MW418238   4.478   2.474   4.711 -0.2333 -0.3769  0.2188
 4617SOL     OW18239   1.667   1.179   6.314  0.2526 -0.7045 -0.1432
 4617SOL    HW218240   1.677   1.135   6.398  0.6626 -1.7710 -0.7290
 4617SOL    HW318241   1.604   1.250   6.331 -0.0482 -1.2116  0.9349
 4617SOL    MW418242   1.660   1.183   6.327  0.2596  0.0474  0.4321
 4618SOL     OW18243   3.503   2.944   6.056 -0.1777  0.1997  0.3940
 4618SOL    HW218244   3.438   3.006   6.024 -0.9230  0.1599  1.7670
 4618SOL    HW318245   3.482   2.862   6.010  0.6419  0.8367 -1.2137
 4618SOL    MW418246   3.491   2.941   6.046  0.2933 -0.7087  0.8610
 4619SOL     OW18247   0.948   5.865   0.046  0.5238 -0.5147 -0.7681
 4619SOL    HW218248   0.986   5.840  -0.038  1.5861  1.6934 -1.0151
 4619SOL    HW318249   0.859   5.892   0.025  0.4373 -0.9669 -0.9984
 4619SOL    MW418250   0.941   5.865   0.032 -0.7284  0.1008  0.4618
 4620SOL     OW18251   4.259   1.832   1.193 -0.0263  0.2493  0.3339
 4620SOL    HW218252   4.322   1.852   1.262  0.1944  2.6493 -0.4428
 4620SOL    HW318253   4.173   1.845   1.234  0.0722  0.2430  0.5411
 4620SOL    MW418254   4.256   1.837   1.207  0.8328 -0.2173 -0.0547
 4621SOL     OW18255   5.966   3.272   2.729 -0.4657  0.0329 -0.0346
 4621SOL    HW218256   5.887   3.219   2.728 -0.9294  0.6225  1.4663
 4621SOL    HW318257   6.023   3.229   2.793 -0.2833  0.5609  0.1641
 4621SOL    MW418258   5.963   3.259   2.737 -0.3127  0.1728  0.0860
 4622SOL     OW18259   1.448   5.133   3.853  0.1864  0.1464 -0.3188
 4622SOL    HW218260   1.531   5.178   3.866  1.2283 -1.3922 -1.2399
 4622SOL    HW318261   1.449   5.063   3.919 -0.0785 -0.2424 -0.7198
 4622SOL    MW418262   1.459   5.130   3.863 -0.0153  0.0939  0.0345
 4623SOL     OW18263   2.081   1.555   0.553  0.3448  0.0274 -0.0288
 4623SOL    HW218264   2.066   1.470   0.513 -1.9354  0.7746 -0.9512
 4623SOL    HW318265   2.153   1.541   0.615  0.1905 -2.4779 -0.3301
 4623SOL    MW418266   2.089   1.542   0.556  0.4372  0.4998  0.1932
 4624SOL     OW18267   5.735   4.579   6.218 -0.2004 -0.2125  0.0329
 4624SOL    HW218268   5.698   4.593   6.305 -1.1512  2.6975 -0.7230
 4624SOL    HW318269   5.659   4.573   6.160  0.4201 -1.5685 -0.6829
 4624SOL    MW418270   5.720   4.580   6.222  0.0219  0.3468  0.0767
 4625SOL     OW18271   4.310   6.358   1.064 -0.4169  0.4897  0.6547
 4625SOL    HW218272   4.221   6.324   1.055 -0.2784  0.3107 -0.1263
 4625SOL    HW318273   4.351   6.340   0.979 -0.5924  3.3342 -0.1562
 4625SOL    MW418274   4.304   6.351   1.051  0.1096 -0.3105  0.4669
 4626SOL     OW18275   5.495   6.245   5.895  0.0238  0.1709  0.2541
 4626SOL    HW218276   5.514   6.255   5.801  1.5628 -1.0175  0.3859
 4626SOL    HW318277   5.419   6.301   5.910 -1.5491 -1.1530 -2.1173
 4626SOL    MW418278   5.488   6.254   5.885  0.4254  0.2169  0.1479
 4627SOL     OW18279   5.000   0.253   0.114  0.0898  0.1626  0.6606
 4627SOL    HW218280   5.068   0.234   0.179  0.0839  1.0030  0.9263
 4627SOL    HW318281   4.934   0.185   0.128  1.0013 -0.8492  0.1904
 4627SOL    MW418282   5.000   0.242   0.125  0.2283 -0.9545  0.2053
 4628SOL     OW18283   1.665   4.144   1.802 -0.5660  0.5278 -0.2844
 4628SOL    HW218284   1.680   4.234   1.774 -1.6084  0.7244 -0.2464
 4628SOL    HW318285   1.626   4.102   1.725  0.6088 -0.1049 -0.5570
 4628SOL    MW418286   1.662   4.150   1.788 -0.2491 -0.0582  0.4942
 4629SOL     OW18287   1.502   0.045   2.705  0.0965 -0.1558  0.6398
 4629SOL    HW218288   1.586   0.057   2.659 -0.6530 -0.3061 -0.8227
 4629SOL    HW318289   1.438   0.088   2.649 -0.6856  0.9189  2.2993
 4629SOL    MW418290   1.505   0.052   2.691 -0.1200  0.2224  0.0131
 4630SOL     OW18291   1.920   0.307   6.321 -0.0503 -0.0636 -0.7279
 4630SOL    HW218292   1.975   0.385   6.325 -0.7883  0.4523 -0.3469
 4630SOL    HW318293   1.831   0.341   6.321 -0.4178 -0.9332  0.8470
 4630SOL    MW418294   1.916   0.322   6.322  0.1276  0.3506  0.2679
 4631SOL     OW18295   2.780   6.082   3.046  0.3951  0.0797 -0.3075
 4631SOL    HW218296   2.687   6.100   3.058  0.6816  0.4310  1.6587
 4631SOL    HW318297   2.797   6.105   2.955 -0.9552  2.2917 -0.0821
 4631SOL    MW418298   2.770   6.088   3.036 -0.1317 -0.1586  0.6522
 4632SOL     OW18299   4.451   5.375   4.182 -1.0782  0.3070 -0.7651
 4632SOL    HW218300   4.470   5.467   4.197 -3.0382  0.8103 -1.1308
 4632SOL    HW318301   4.444   5.366   4.087  0.0235 -0.4283 -0.7893
 4632SOL    MW418302   4.452   5.386   4.172  0.0334 -0.4335  0.0490
 4633SOL     OW18303   1.900   2.760   4.177 -0.0496 -0.2813  0.4309
 4633SOL    HW218304   1.927   2.685   4.231 -1.5452 -0.0180  1.6255
 4633SOL    HW318305   1.965   2.827   4.195 -0.0924 -0.4639  1.3541
 4633SOL    MW418306   1.912   2.759   4.187 -0.3669 -0.2733  0.0115
 4634SOL     OW18307   3.854   1.648   3.346 -0.2665 -0.5231  0.0767
 4634SOL    HW218308   3.932   1.685   3.386 -0.6270 -0.3762  0.6544
 4634SOL    HW318309   3.861   1.554   3.361 -0.2024 -0.5090  0.1345
 4634SOL    MW418310   3.865   1.640   3.353 -0.5235  0.5344  0.0917
 4635SOL     OW18311   3.429   6.007   1.884 -0.9120  0.0452  0.1979
 4635SOL    HW218312   3.421   5.923   1.839 -0.5138 -0.0565  0.3096
 4635SOL    HW318313   3.349   6.014   1.937 -2.0040  0.7627 -1.4849
 4635SOL    MW418314   3.418   5.997   1.885  0.8245 -0.0912  0.0109
 4636SOL     OW18315   1.796   3.272   6.354  0.2709 -0.4429 -0.1573
 4636SOL    HW218316   1.732   3.234   6.415 -1.3219 -1.1761 -2.1794
 4636SOL    HW318317   1.834   3.197   6.308  1.1791  0.1136 -0.3380
 4636SOL    MW418318   1.792   3.257   6.356 -0.7088  0.2167 -1.0924
 4637SOL     OW18319   3.491   3.575   1.657 -0.0854 -0.2386 -0.3054
 4637SOL    HW218320   3.543   3.588   1.737  0.0558 -0.9028 -0.2829
 4637SOL    HW318321   3.481   3.480   1.651  0.1830 -0.2145 -1.2625
 4637SOL    MW418322   3.497   3.564   1.667  0.4132  0.0229 -0.2992
 4638SOL     OW18323   5.111   5.748   3.677 -0.2054  0.0094 -0.4201
 4638SOL    HW218324   5.084   5.743   3.585 -2.7823  0.9984  0.2043
 4638SOL    HW318325   5.050   5.691   3.723 -1.1892  2.1466  1.0636
 4638SOL    MW418326   5.099   5.740   3.671  0.5051  0.2540  0.2251
 4639SOL     OW18327   6.127   5.660   0.659 -0.6545 -0.5308 -0.0894
 4639SOL    HW218328   6.169   5.581   0.691  0.1888 -0.2215 -0.4172
 4639SOL    HW318329   6.038   5.632   0.636 -0.7815 -1.0799  1.0408
 4639SOL    MW418330   6.121   5.646   0.660 -0.1133  0.2787 -0.2807
 4640SOL     OW18331   3.552   3.896   0.219 -0.0282  0.2373 -0.3438
 4640SOL    HW218332   3.532   3.813   0.263 -0.0430  0.5374  0.2204
 4640SOL    HW318333   3.593   3.870   0.137  0.8450 -0.3170  0.2560
 4640SOL    MW418334   3.555   3.881   0.214  0.4829 -0.4531 -0.0944
 4641SOL     OW18335   3.074   2.557   1.690  0.1594 -0.8285 -0.3479
 4641SOL    HW218336   3.130   2.626   1.725 -0.0937 -1.2449  0.9264
 4641SOL    HW318337   3.094   2.555   1.596  0.3791  0.7742 -0.3680
 4641SOL    MW418338   3.084   2.566   1.682 -0.0365  0.2825  0.0388
 4642SOL     OW18339   4.990   5.508   2.040 -0.3768 -0.1283 -0.2287
 4642SOL    HW218340   4.939   5.434   2.073  1.1036 -0.6564  1.0133
 4642SOL    HW318341   4.954   5.584   2.087  0.6728 -0.6590  1.5193
 4642SOL    MW418342   4.978   5.508   2.051  0.3216  0.0797  0.3836
 4643SOL     OW18343   0.567   3.523   3.958  0.0926  0.2797 -0.5154
 4643SOL    HW218344   0.550   3.502   3.867  0.7150 -0.2597 -0.5197
 4643SOL    HW318345   0.630   3.456   3.987  0.0072  0.5204  0.2648
 4643SOL    MW418346   0.573   3.511   3.950 -0.1426  0.2272  0.0058
 4644SOL     OW18347   0.876   3.084   2.913 -0.0063  0.5893  0.3045
 4644SOL    HW218348   0.877   3.153   2.846  1.0913  0.7979  0.5225
 4644SOL    HW318349   0.910   3.007   2.868  1.5184  0.9331  0.8015
 4644SOL    MW418350   0.881   3.083   2.898 -0.2831 -0.1259 -0.0609
 4645SOL     OW18351   3.568   3.655   0.651 -0.1164 -0.5801 -0.0944
 4645SOL    HW218352   3.624   3.581   0.676  0.5518 -0.4487 -1.1167
 4645SOL    HW318353   3.488   3.614   0.619  0.0322 -0.8430 -0.1346
 4645SOL    MW418354   3.565   3.640   0.650 -0.7845  0.9966 -0.2490
 4646SOL     OW18355   0.145   3.696   4.610 -0.6003 -0.0607 -0.3699
 4646SOL    HW218356   0.109   3.783   4.594  0.3127  1.2223  3.3781
 4646SOL    HW318357   0.237   3.703   4.583 -0.5743  0.0931 -0.2437
 4646SOL    MW418358   0.153   3.709   4.604 -0.9320  0.0681 -0.4045
 4647SOL     OW18359   2.225   1.294   5.760 -0.3156  0.1057 -0.2556
 4647SOL    HW218360   2.152   1.317   5.703 -0.0818  2.2436  0.2302
 4647SOL    HW318361   2.231   1.198   5.754 -3.2016 -0.1697 -0.2377
 4647SOL    MW418362   2.216   1.284   5.752  0.2145 -0.0095  0.0072
 4648SOL     OW18363   4.276   3.526   2.818 -0.9459  0.5268 -0.4452
 4648SOL    HW218364   4.314   3.594   2.874  0.4177 -0.3897 -0.2082
 4648SOL    HW318365   4.191   3.561   2.792 -0.4117  2.1770 -0.0703
 4648SOL    MW418366   4.270   3.539   2.822 -0.4860  0.0191  0.3460
 4649SOL     OW18367   6.427   1.593   2.080 -0.1395  0.0353  0.1450
 4649SOL    HW218368   6.416   1.500   2.059 -1.9874  0.5167 -1.3930
 4649SOL    HW318369   6.521   1.608   2.072  0.2508 -1.7675  0.8124
 4649SOL    MW418370   6.438   1.583   2.076 -0.2675 -0.1550 -0.2416
 4650SOL     OW18371   2.975   2.583   3.666 -0.0928 -0.3812 -0.0974
 4650SOL    HW218372   2.930   2.585   3.750 -0.4685 -1.6673 -0.2554
 4650SOL    HW318373   2.905   2.591   3.601  0.0741 -0.5855 -0.3036
 4650SOL    MW418374   2.960   2.584   3.668  0.7578  0.4776 -0.7945
 4651SOL     OW18375   2.751   2.079   4.006 -0.5069  0.1412  0.1360
 4651SOL    HW218376   2.698   2.126   3.941  1.1377  1.8244 -0.1002
 4651SOL    HW318377   2.826   2.048   3.957 -1.1433 -2.1007  0.4887
 4651SOL    MW418378   2.754   2.081   3.991  0.3710 -0.5275  0.0412
 4652SOL     OW18379   3.752   5.267   5.722  0.7272 -0.4158 -0.0522
 4652SOL    HW218380   3.799   5.185   5.710 -0.1314 -0.8624 -0.4187
 4652SOL    HW318381   3.725   5.266   5.814 -0.9707 -1.4907 -0.5098
 4652SOL    MW418382   3.754   5.256   5.733 -0.8009 -0.2708 -0.0248
 4653SOL     OW18383   1.873   5.698   4.055 -0.1001  0.6412 -0.6065
 4653SOL    HW218384   1.961   5.731   4.043 -0.0053  0.6321  0.0190
 4653SOL    HW318385   1.828   5.717   3.973  0.2347  1.4174 -0.6169
 4653SOL    MW418386   1.879   5.705   4.043 -0.1615  0.4412 -0.1752
 4654SOL     OW18387   5.383   3.306   3.719  0.5455  0.5756  0.1009
 4654SOL    HW218388   5.309   3.339   3.668 -0.2095 -0.8762  0.1737
 4654SOL    HW318389   5.344   3.241   3.778  1.8410 -0.0600  0.3105
 4654SOL    MW418390   5.368   3.302   3.720  1.3563 -0.2186 -0.2519
 4655SOL     OW18391   4.292   1.079   5.684 -0.0153  0.4904 -0.1005
 4655SOL    HW218392   4.303   1.102   5.592 -0.6404  1.6121  0.0884
 4655SOL    HW318393   4.204   1.109   5.705  0.1147  0.2180  0.8563
 4655SOL    MW418394   4.282   1.086   5.674 -0.3274  0.5186  0.1741
 4656SOL     OW18395   2.780   1.338   6.381 -0.2497  0.3350  0.3236
 4656SOL    HW218396   2.824   1.419   6.354  0.1868 -0.0869 -0.2364
 4656SOL    HW318397   2.723   1.365   6.454  0.7691  0.9390  0.9245
 4656SOL    MW418398   2.778   1.352   6.387 -0.0733 -0.7682  0.6487
 4657SOL     OW18399   1.796   5.571   1.183  0.6287  0.6683 -0.0628
 4657SOL    HW218400   1.810   5.661   1.153  1.0779  1.1402  1.4471
 4657SOL    HW318401   1.706   5.551   1.158  1.5151  0.3026 -3.3229
 4657SOL    MW418402   1.786   5.580   1.176 -0.1076  0.3020  0.2218
 4658SOL     OW18403   3.392   3.613   5.078  0.1115  0.2717 -0.0284
 4658SOL    HW218404   3.412   3.676   5.147  1.2668  0.6228 -0.6800
 4658SOL    HW318405   3.339   3.546   5.123 -0.6787  1.3948  0.7860
 4658SOL    MW418406   3.387   3.612   5.093 -0.3730  0.2297  0.3227
 4659SOL     OW18407   1.533   3.028   3.339  0.3486 -0.1426  0.7550
 4659SOL    HW218408   1.527   3.064   3.251  0.2646 -0.2438  0.7185
 4659SOL    HW318409   1.505   2.937   3.329 -4.1046  0.9066  1.6507
 4659SOL    MW418410   1.529   3.020   3.326  0.0589  0.2310  0.2808
 4660SOL     OW18411   5.271   4.470   2.600  0.4342 -0.1727  0.8416
 4660SOL    HW218412   5.270   4.439   2.509  1.7217  3.4167 -0.5868
 4660SOL    HW318413   5.181   4.495   2.617  0.4173  0.4407 -0.0343
 4660SOL    MW418414   5.259   4.469   2.590  0.0852 -0.2057 -0.1266
 4661SOL     OW18415   1.517   5.568   3.925 -0.0054  0.4002 -0.2605
 4661SOL    HW218416   1.550   5.620   3.999  0.0328 -1.0129  0.7629
 4661SOL    HW318417   1.594   5.551   3.871  0.3286 -0.0581  0.3431
 4661SOL    MW418418   1.532   5.573   3.928 -0.1444 -0.3334  0.1251
 4662SOL     OW18419   2.264   3.828   1.633  0.5000 -0.3764 -0.4367
 4662SOL    HW218420   2.197   3.792   1.691  0.6059  0.5868  0.3266
 4662SOL    HW318421   2.332   3.761   1.629 -0.1342 -1.0190 -0.5565
 4662SOL    MW418422   2.264   3.815   1.640  0.0134  0.4268  0.5869
 4663SOL     OW18423   3.774   2.539   1.225  0.0898  0.2041 -0.5170
 4663SOL    HW218424   3.842   2.534   1.293 -0.2771 -1.3740 -0.2211
 4663SOL    HW318425   3.746   2.448   1.213 -1.7529  0.7759 -0.8439
 4663SOL    MW418426   3.779   2.526   1.233  0.2538 -0.3236 -0.5361
 4664SOL     OW18427   3.251   5.256   3.752 -0.0329  0.4524  0.1371
 4664SOL    HW218428   3.297   5.323   3.802  2.5208 -1.6633  0.8139
 4664SOL    HW318429   3.318   5.191   3.730 -2.2219 -1.5658 -1.0857
 4664SOL    MW418430   3.266   5.256   3.756  0.0847 -0.6286  0.8879
 4665SOL     OW18431   3.817   0.201   6.340 -0.0414 -0.0132  0.3520
 4665SOL    HW218432   3.775   0.164   6.262  1.9836 -0.2467 -0.7075
 4665SOL    HW318433   3.804   0.296   6.331  1.1456  0.0673 -0.9437
 4665SOL    MW418434   3.810   0.209   6.329  0.1079  0.6421  0.0804
 4666SOL     OW18435   3.336   4.557   5.429  0.4878 -0.0574  0.1855
 4666SOL    HW218436   3.362   4.478   5.476  0.3386  0.2456  0.7825
 4666SOL    HW318437   3.377   4.548   5.343  0.3273 -0.8663  0.1813
 4666SOL    MW418438   3.345   4.546   5.424  0.0875 -0.4969 -0.0225
 4667SOL     OW18439   2.043   2.982   2.011 -0.3127  0.3003  0.3313
 4667SOL    HW218440   2.049   2.946   1.923 -1.4846  3.0544 -1.0165
 4667SOL    HW318441   2.126   3.029   2.024 -0.3197  0.2659  0.5040
 4667SOL    MW418442   2.055   2.984   2.001 -0.2870  0.3970  0.6034
 4668SOL     OW18443   3.551   0.620   1.440 -0.2593  0.0806 -0.3432
 4668SOL    HW218444   3.618   0.634   1.508 -0.3983 -0.7871 -0.0098
 4668SOL    HW318445   3.544   0.704   1.395 -1.0460  1.0732  1.5103
 4668SOL    MW418446   3.559   0.633   1.443  0.1242 -0.4627  0.5693
 4669SOL     OW18447   6.229   4.508   4.879  0.1135  0.1175 -0.7021
 4669SOL    HW218448   6.269   4.474   4.959  0.7736  1.2331 -0.5331
 4669SOL    HW318449   6.235   4.436   4.816  2.2197  0.1664 -0.6205
 4669SOL    MW418450   6.235   4.494   4.881  0.6695  0.0271  0.3048
 4670SOL     OW18451   2.517   6.300   2.480  0.4453  0.4192 -0.1918
 4670SOL    HW218452   2.583   6.348   2.431  1.3476 -1.4519 -0.9103
 4670SOL    HW318453   2.446   6.287   2.417  0.8087 -0.3742 -0.4514
 4670SOL    MW418454   2.516   6.304   2.465  0.2815 -0.2548  0.1189
 4671SOL     OW18455   6.284   1.800   5.401  0.4410  0.6119 -0.0145
 4671SOL    HW218456   6.262   1.852   5.478  0.0722 -0.1432  0.3900
 4671SOL    HW318457   6.377   1.818   5.386  0.3722  1.2047  0.2582
 4671SOL    MW418458   6.294   1.809   5.409  0.0143  0.3473 -0.0680
 4672SOL     OW18459   2.920   1.770   0.846 -0.1012 -0.4067  0.0024
 4672SOL    HW218460   2.904   1.843   0.907 -0.7139  0.7139 -1.4205
 4672SOL    HW318461   2.933   1.694   0.902  0.8604  0.8459  1.5651
 4672SOL    MW418462   2.919   1.770   0.861  0.2450 -0.1154 -0.1913
 4673SOL     OW18463   0.921   3.053   0.407 -0.4181 -0.1731  0.3826
 4673SOL    HW218464   0.949   3.144   0.417  2.0786 -0.7238 -0.6712
 4673SOL    HW318465   0.835   3.058   0.367 -1.6059  1.6960  2.9458
 4673SOL    MW418466   0.914   3.065   0.403  0.0580 -0.3995  0.1838
 4674SOL     OW18467   1.129   3.327   5.990  0.3752  0.4903 -0.2208
 4674SOL    HW218468   1.212   3.357   6.026  1.0470 -1.0082 -0.4428
 4674SOL    HW318469   1.152   3.278   5.911 -0.6973 -0.0298 -0.2399
 4674SOL    MW418470   1.143   3.324   5.984 -0.3290  0.4556 -0.0151
 4675SOL     OW18471   2.687   4.659   0.508 -0.2966  0.0795 -0.2025
 4675SOL    HW218472   2.699   4.569   0.477 -1.0565 -0.0594 -0.1038
 4675SOL    HW318473   2.623   4.697   0.448 -1.4791 -0.0631  0.9112
 4675SOL    MW418474   2.680   4.652   0.496 -0.3757 -0.1292 -0.9139
 4676SOL     OW18475   2.882   0.987   2.399 -0.7390 -0.5498 -0.0972
 4676SOL    HW218476   2.846   1.069   2.434 -0.9834  0.5106 -2.6394
 4676SOL    HW318477   2.862   0.922   2.467  1.5826  1.7911  3.1932
 4676SOL    MW418478   2.874   0.989   2.413 -0.4885  0.4848  0.6909
 4677SOL     OW18479   5.423   0.203   4.972 -0.6268  0.0760 -0.1933
 4677SOL    HW218480   5.453   0.267   4.906 -2.0463  0.0050 -0.9419
 4677SOL    HW318481   5.439   0.118   4.931  1.8370 -0.1472  1.0496
 4677SOL    MW418482   5.429   0.200   4.958 -0.0719  0.3623 -0.5146
 4678SOL     OW18483   4.079   3.903   5.586 -0.4013 -0.4475  0.4954
 4678SOL    HW218484   4.082   3.826   5.530 -1.2548 -0.6698  0.7391
 4678SOL    HW318485   4.167   3.941   5.580 -0.4271 -0.5555 -0.8540
 4678SOL    MW418486   4.091   3.898   5.578 -0.1290  0.0906  0.1164
 4679SOL     OW18487   0.856   2.633   5.757 -0.1855 -0.3358 -0.0801
 4679SOL    HW218488   0.940   2.644   5.801  0.7077  0.6775 -1.9279
 4679SOL    HW318489   0.805   2.710   5.782  0.2264  0.1075 -0.5704
 4679SOL    MW418490   0.861   2.645   5.766  0.1397  0.0734 -0.4853
 4680SOL     OW18491   1.981   1.839   6.195 -0.2551  0.1418  0.4093
 4680SOL    HW218492   2.018   1.797   6.118 -0.4002  0.4416  0.1734
 4680SOL    HW318493   1.921   1.774   6.232 -0.9471  0.3561 -0.3000
 4680SOL    MW418494   1.978   1.825   6.190  0.4903  0.3707  0.3180
 4681SOL     OW18495   0.745   6.167   2.630  0.3904 -0.1488 -0.0357
 4681SOL    HW218496   0.686   6.092   2.631  1.9877 -1.4543  0.5803
 4681SOL    HW318497   0.749   6.196   2.721 -0.5391  0.9883 -0.3302
 4681SOL    MW418498   0.738   6.161   2.642 -0.2094 -0.4756  0.2375
 4682SOL     OW18499   4.497   5.805   0.717 -0.3608 -0.4045 -0.1168
 4682SOL    HW218500   4.439   5.759   0.656  0.0829 -1.4293  0.2117
 4682SOL    HW318501   4.563   5.846   0.661 -0.6660 -0.2989 -0.4036
 4682SOL    MW418502   4.498   5.805   0.701  0.3684 -0.3063  0.2437
 4683SOL     OW18503   2.062   4.402   3.123 -0.0319 -0.0677 -0.4554
 4683SOL    HW218504   2.053   4.410   3.218 -0.0374 -2.8497 -0.1539
 4683SOL    HW318505   2.156   4.389   3.109 -0.3073 -2.2618 -0.5295
 4683SOL    MW418506   2.073   4.402   3.134  0.3371 -0.2374  0.7542
 4684SOL     OW18507   1.989   4.493   5.202 -0.0745 -0.3642 -0.5414
 4684SOL    HW218508   2.074   4.485   5.159  0.4854 -1.1920  0.6793
 4684SOL    HW318509   1.953   4.576   5.169  0.8022 -0.4372 -1.7466
 4684SOL    MW418510   1.995   4.503   5.192 -0.2528 -0.5041  0.2762
 4685SOL     OW18511   1.052   3.604   0.062 -0.1592 -0.3047  0.3007
 4685SOL    HW218512   0.987   3.637  -0.000 -0.7748  0.5402  1.3567
 4685SOL    HW318513   1.030   3.512   0.073  1.0349 -0.9575 -2.0144
 4685SOL    MW418514   1.041   3.596   0.055 -0.4589  0.0183 -0.1795
 4686SOL     OW18515   1.261   3.861   1.082 -0.1503 -0.2739  0.4653
 4686SOL    HW218516   1.301   3.777   1.057 -0.6305  0.0244 -1.4447
 4686SOL    HW318517   1.286   3.921   1.011 -3.6203  0.0265 -0.6634
 4686SOL    MW418518   1.270   3.858   1.069  0.6459 -0.5838  0.8633
 4687SOL     OW18519   4.687   2.302   1.970  0.2908  0.1207  0.4282
 4687SOL    HW218520   4.764   2.286   1.915 -0.7993  0.2414 -1.1961
 4687SOL    HW318521   4.619   2.246   1.933 -0.4671  0.1796  1.7053
 4687SOL    MW418522   4.688   2.293   1.958  0.5608 -0.1010  0.1214
 4688SOL     OW18523   1.383   6.396   3.867  0.3095 -0.2597  0.2876
 4688SOL    HW218524   1.473   6.431   3.865  0.4983 -0.2975  3.4346
 4688SOL    HW318525   1.395   6.301   3.864  0.3385 -0.2600  0.4268
 4688SOL    MW418526   1.397   6.388   3.866 -0.6028 -0.7937  0.2576
 4689SOL     OW18527   0.831   5.736   2.182 -0.3289 -0.3483 -0.2642
 4689SOL    HW218528   0.835   5.689   2.098 -0.4495  0.1760 -0.5729
 4689SOL    HW318529   0.922   5.740   2.211 -0.1557  0.3268 -0.8673
 4689SOL    MW418530   0.844   5.730   2.174 -0.1303  0.2376  0.0447
 4690SOL     OW18531   1.870   3.732   5.266 -0.3829  0.5252  0.5458
 4690SOL    HW218532   1.791   3.761   5.313 -2.3801 -0.6935 -1.8731
 4690SOL    HW318533   1.870   3.784   5.186 -1.0082 -2.2051 -1.3312
 4690SOL    MW418534   1.860   3.743   5.262 -0.1031 -0.2830  0.1904
 4691SOL     OW18535   3.751   6.001   6.176  0.2968 -0.2105  0.2120
 4691SOL    HW218536   3.739   6.070   6.112  1.4258 -0.5593 -0.4082
 4691SOL    HW318537   3.846   5.992   6.184  0.1967  0.0867  2.2209
 4691SOL    MW418538   3.762   6.009   6.169  0.3425 -0.6145 -0.8521
 4692SOL     OW18539   0.496   2.357   4.539  0.6864  0.0537  0.1848
 4692SOL    HW218540   0.535   2.386   4.621  1.5304  1.9841 -0.8482
 4692SOL    HW318541   0.444   2.432   4.509 -0.1673 -0.8620 -0.7241
 4692SOL    MW418542   0.494   2.371   4.546 -0.0021 -0.5582 -0.2619
 4693SOL     OW18543   0.387   4.558   2.206 -0.4834 -0.3961 -0.0688
 4693SOL    HW218544   0.331   4.600   2.271  0.4417  2.9405 -1.2360
 4693SOL    HW318545   0.466   4.533   2.253 -0.2558  1.0367  0.3590
 4693SOL    MW418546   0.390   4.560   2.221 -0.8616  0.1066  0.1813
 4694SOL     OW18547   3.686   5.348   4.316 -0.6055  0.6193 -0.2818
 4694SOL    HW218548   3.661   5.289   4.245 -0.5442 -1.0588  1.0285
 4694SOL    HW318549   3.603   5.382   4.349 -0.8300 -0.6354  0.4966
 4694SOL    MW418550   3.672   5.345   4.311 -0.0785  0.6286  0.1661
 4695SOL     OW18551   1.989   4.660   3.953  0.2246  0.0316 -0.2442
 4695SOL    HW218552   2.081   4.686   3.950  0.2638 -0.1674 -2.9348
 4695SOL    HW318553   1.952   4.692   3.871 -2.1002 -0.0567  0.6771
 4695SOL    MW418554   1.996   4.668   3.942 -0.0255 -0.4270 -0.3355
 4696SOL     OW18555   1.733   1.321   1.152  0.4524  0.6472 -0.0191
 4696SOL    HW218556   1.819   1.353   1.179  0.9397 -0.3742 -0.2834
 4696SOL    HW318557   1.733   1.229   1.178 -0.7033  0.7219  0.2877
 4696SOL    MW418558   1.744   1.313   1.159 -0.5934 -0.5546 -0.1454
 4697SOL     OW18559   3.091   6.418   0.772 -0.9389  0.2965  0.4550
 4697SOL    HW218560   3.029   6.485   0.745 -1.1572 -0.0518  0.0804
 4697SOL    HW318561   3.087   6.418   0.867 -0.1454  1.5584  0.5170
 4697SOL    MW418562   3.083   6.427   0.781 -0.6130 -0.2263  0.0796
 4698SOL     OW18563   5.335   2.558   5.805  0.1654  0.3552  0.6556
 4698SOL    HW218564   5.280   2.480   5.814  0.5165  0.1857  1.3770
 4698SOL    HW318565   5.424   2.525   5.812  0.3737  0.6356 -0.4730
 4698SOL    MW418566   5.339   2.543   5.807 -0.2102 -0.5695 -0.1317
 4699SOL     OW18567   1.650   5.947   6.307 -0.5126  0.1771  0.3835
 4699SOL    HW218568   1.663   5.950   6.402 -2.3054  0.7584  0.6499
 4699SOL    HW318569   1.660   6.038   6.278  3.0349 -0.3563 -0.5161
 4699SOL    MW418570   1.653   5.960   6.316  0.8172  0.0201 -0.1488
 4700SOL     OW18571   0.259   4.314   2.237 -0.0618  0.7627 -0.3636
 4700SOL    HW218572   0.312   4.394   2.239  0.7006  0.2553 -0.0339
 4700SOL    HW318573   0.244   4.292   2.329 -2.5083  1.9564 -0.3748
 4700SOL    MW418574   0.264   4.322   2.249 -0.3972 -0.3778 -0.3226
 4701SOL     OW18575   6.299   4.333   2.329  0.4442 -0.0937  0.1126
 4701SOL    HW218576   6.344   4.264   2.377 -1.0925 -0.4620  1.1200
 4701SOL    HW318577   6.368   4.380   2.283  1.7080 -1.2495  0.7580
 4701SOL    MW418578   6.314   4.330   2.330  0.4425 -0.5560  0.1743
 4702SOL     OW18579   5.365   2.381   0.058 -0.5214 -0.1396  0.1998
 4702SOL    HW218580   5.380   2.302   0.111  0.6863  0.4509  0.7709
 4702SOL    HW318581   5.436   2.440   0.082 -0.4717  0.5109 -1.4237
 4702SOL    MW418582   5.376   2.378   0.068 -0.1245  0.6043  0.1176
 4703SOL     OW18583   0.881   4.228   2.172  0.0659 -0.1264 -0.2652
 4703SOL    HW218584   0.916   4.237   2.084  1.4294  3.2436  0.4427
 4703SOL    HW318585   0.944   4.171   2.217  0.4967 -0.1764 -0.9222
 4703SOL    MW418586   0.894   4.221   2.167 -0.2010  0.2356  0.3512
 4704SOL     OW18587   2.382   1.592   1.787 -0.2495  0.4089 -0.6383
 4704SOL    HW218588   2.367   1.685   1.805  0.6022  0.5180 -0.4411
 4704SOL    HW318589   2.460   1.591   1.731 -0.3420 -0.1784 -0.7592
 4704SOL    MW418590   2.391   1.604   1.782  0.2155  0.2763  0.0003
 4705SOL     OW18591   3.982   1.055   3.118 -0.3606 -0.6488  0.5944
 4705SOL    HW218592   3.987   0.961   3.103  0.8422 -0.7748  1.6109
 4705SOL    HW318593   3.941   1.090   3.039 -0.4559 -1.9747  0.0321
 4705SOL    MW418594   3.977   1.048   3.105 -0.3716 -0.2372  0.0711
 4706SOL     OW18595   6.129   3.976   1.414 -0.1136 -0.1463 -0.1193
 4706SOL    HW218596   6.221   3.980   1.388  0.1772 -0.5264  0.7999
 4706SOL    HW318597   6.127   4.015   1.502 -1.3864  2.9345 -1.3873
 4706SOL    MW418598   6.141   3.981   1.423 -0.6688  0.3951 -0.2299
 4707SOL     OW18599   5.237   1.821   4.918  0.3267 -0.3673 -0.5141
 4707SOL    HW218600   5.222   1.728   4.933 -1.7685  0.0578  0.4682
 4707SOL    HW318601   5.320   1.840   4.961  0.7680 -1.7606 -0.7139
 4707SOL    MW418602   5.246   1.811   4.925 -0.1221  0.1440 -0.7620
 4708SOL     OW18603   4.669   4.785   2.742  0.4123  0.3364 -0.0846
 4708SOL    HW218604   4.749   4.816   2.784  0.2884  2.2548 -1.1620
 4708SOL    HW318605   4.699   4.744   2.661  0.3399  0.6577 -0.2745
 4708SOL    MW418606   4.684   4.783   2.737  0.2261 -0.2029  0.1192
 4709SOL     OW18607   0.166   0.173   3.448 -0.0092  0.2596  0.4031
 4709SOL    HW218608   0.115   0.251   3.426 -1.0268  0.1217  2.0831
 4709SOL    HW318609   0.217   0.155   3.370 -0.2710  2.1987 -0.2777
 4709SOL    MW418610   0.166   0.181   3.435 -0.4379 -0.1671 -0.9621
 4710SOL     OW18611   1.654   0.848   5.151  0.3389  0.2464 -0.9049
 4710SOL    HW218612   1.627   0.932   5.114  0.8511  0.5734 -0.5458
 4710SOL    HW318613   1.665   0.865   5.244 -1.4378 -0.6891 -0.4689
 4710SOL    MW418614   1.652   0.861   5.158  0.4528  0.5107  0.5482
 4711SOL     OW18615   4.802   5.824   0.657 -0.1801  0.7429  0.2090
 4711SOL    HW218616   4.810   5.878   0.578  0.5291  0.2259 -0.0756
 4711SOL    HW318617   4.825   5.883   0.729  1.7886  0.5293 -0.1983
 4711SOL    MW418618   4.806   5.839   0.656 -0.4283  0.6679 -0.3872
 4712SOL     OW18619   2.636   5.481   0.895 -0.0460 -0.0196  0.1593
 4712SOL    HW218620   2.607   5.519   0.813  1.1460  0.1251 -0.2136
 4712SOL    HW318621   2.555   5.452   0.938 -0.6986  0.0891 -0.9574
 4712SOL    MW418622   2.622   5.482   0.890 -0.6796  0.4396 -0.7395
 4713SOL     OW18623   3.792   4.896   0.829  0.2878 -0.3029  0.1484
 4713SOL    HW218624   3.832   4.966   0.777 -0.6956 -0.4989 -0.9039
 4713SOL    HW318625   3.867   4.852   0.870  1.0013  0.6244 -0.1117
 4713SOL    MW418626   3.807   4.899   0.827 -0.0232  0.7665  0.2116
 4714SOL     OW18627   4.896   2.918   4.194 -0.3539  0.0226 -0.3278
 4714SOL    HW218628   4.859   2.839   4.155  0.6458 -0.4958 -0.2536
 4714SOL    HW318629   4.966   2.886   4.251 -0.2844  0.9288  0.1081
 4714SOL    MW418630   4.901   2.903   4.196 -0.0964 -0.0704  0.0853
 4715SOL     OW18631   4.418   5.073   1.757 -0.0672  0.6083  0.2834
 4715SOL    HW218632   4.369   5.069   1.675 -0.3658  0.4176  0.4735
 4715SOL    HW318633   4.503   5.035   1.735 -0.4551 -0.2850  0.2872
 4715SOL    MW418634   4.423   5.067   1.743  0.5042  0.0887  0.2471
 4716SOL     OW18635   4.896   0.568   0.131 -0.1303  0.4807  0.0864
 4716SOL    HW218636   4.837   0.627   0.178 -2.4453 -0.8612 -0.9732
 4716SOL    HW318637   4.938   0.516   0.200 -1.3821  0.4008  0.8189
 4716SOL    MW418638   4.894   0.569   0.146 -0.3815  0.4771  0.0071
 4717SOL     OW18639   4.998   4.250   5.871  0.5957  0.1023 -0.6061
 4717SOL    HW218640   4.964   4.337   5.893  0.4289  0.0462 -0.6433
 4717SOL    HW318641   5.079   4.268   5.822  0.3445  0.2422 -0.9727
 4717SOL    MW418642   5.005   4.264   5.868  0.1221 -0.0528 -0.2294
 4718SOL     OW18643   6.264   2.349   0.944 -0.2473 -0.0445 -0.2590
 4718SOL    HW218644   6.177   2.311   0.944  0.1893 -1.0844 -0.5249
 4718SOL    HW318645   6.323   2.275   0.929  0.8430  0.2939  1.9843
 4718SOL    MW418646   6.261   2.334   0.942 -0.3358  0.5432 -0.0445
 4719SOL     OW18647   4.990   3.188   2.016  0.4332 -0.0981  0.7318
 4719SOL    HW218648   4.976   3.106   2.064  0.5903 -0.1131  0.7538
 4719SOL    HW318649   4.958   3.256   2.074 -0.2259 -0.1864  0.4818
 4719SOL    MW418650   4.984   3.186   2.030  0.0877 -0.8164 -0.3005
 4720SOL     OW18651   2.114   1.427   2.380  0.0138  0.0605  0.4810
 4720SOL    HW218652   2.075   1.420   2.292  0.9388 -0.0331  0.0687
 4720SOL    HW318653   2.138   1.519   2.388 -1.7872  0.4909  1.4047
 4720SOL    MW418654   2.112   1.438   2.369  0.4270 -0.2266 -0.2264
 4721SOL     OW18655   2.074   6.185   5.197 -0.1168 -0.2993  0.7937
 4721SOL    HW218656   2.046   6.265   5.153 -2.7319 -2.2118 -1.3455
 4721SOL    HW318657   2.155   6.160   5.154 -0.9834 -0.4337 -0.8469
 4721SOL    MW418658   2.081   6.192   5.186  0.0498 -0.4381 -0.3469
 4722SOL     OW18659   3.329   2.822   4.108  0.1627 -0.1046  0.5273
 4722SOL    HW218660   3.243   2.781   4.097 -0.3036  0.9253  0.1550
 4722SOL    HW318661   3.359   2.794   4.194 -1.4641  1.1049  1.5515
 4722SOL    MW418662   3.321   2.813   4.118  0.1731  0.3752  1.0409
 4723SOL     OW18663   0.469   4.433   0.269 -0.0532 -0.6953  0.2102
 4723SOL    HW218664   0.404   4.495   0.234 -1.0864 -0.8795  1.7291
 4723SOL    HW318665   0.531   4.488   0.317 -0.9152 -0.7762  1.4739
 4723SOL    MW418666   0.468   4.449   0.271  0.1365  0.2564 -0.1288
 4724SOL     OW18667   1.593   5.330   3.622 -0.4719  0.2001 -0.4470
 4724SOL    HW218668   1.549   5.262   3.573 -0.6028 -0.0490  0.0071
 4724SOL    HW318669   1.661   5.363   3.563 -1.2806  0.6142 -1.1582
 4724SOL    MW418670   1.596   5.325   3.608  0.0033 -0.4092 -0.3137
 4725SOL     OW18671   4.501   5.981   6.020 -0.4374  0.2741 -0.1103
 4725SOL    HW218672   4.518   6.059   6.073  0.1104  0.5063 -0.6149
 4725SOL    HW318673   4.582   5.930   6.026 -1.5506 -1.4097  2.0866
 4725SOL    MW418674   4.514   5.984   6.028 -0.3393  0.2382 -0.5355
 4726SOL     OW18675   2.945   3.319   3.636 -0.0769 -0.6120  0.3006
 4726SOL    HW218676   3.021   3.260   3.635  0.3463 -0.1289 -2.0566
 4726SOL    HW318677   2.982   3.405   3.618 -1.1208 -0.2935 -0.3605
 4726SOL    MW418678   2.960   3.322   3.633 -0.2995 -0.0159  0.5387
 4727SOL     OW18679   5.334   5.613   3.758  0.1657  0.3060  0.0739
 4727SOL    HW218680   5.322   5.601   3.852  0.5050  0.5356  0.1467
 4727SOL    HW318681   5.277   5.687   3.736  1.3577  1.3515  0.4086
 4727SOL    MW418682   5.325   5.621   3.767 -0.1423 -0.2646 -0.5411
 4728SOL     OW18683   1.946   4.123   0.272  0.1463 -0.0793  0.0451
 4728SOL    HW218684   2.021   4.183   0.273 -0.3969  0.6107 -0.1707
 4728SOL    HW318685   1.913   4.128   0.182 -2.6565  2.7951  1.0464
 4728SOL    MW418686   1.952   4.131   0.260  0.1015 -0.4565  0.0051
 4729SOL     OW18687   4.353   2.653   5.333 -0.5977  0.5513 -0.4407
 4729SOL    HW218688   4.343   2.565   5.368 -1.9425  0.7969 -0.1356
 4729SOL    HW318689   4.263   2.682   5.315 -0.1129  1.5063 -1.4208
 4729SOL    MW418690   4.340   2.645   5.335 -0.1370 -0.5371  0.2184
 4730SOL     OW18691   2.697   2.844   4.734  0.0308  0.2891  0.1739
 4730SOL    HW218692   2.774   2.809   4.689 -0.6794 -0.7301 -0.3155
 4730SOL    HW318693   2.651   2.766   4.766 -1.5911  0.7395 -0.8945
 4730SOL    MW418694   2.701   2.829   4.732  0.3321  0.0704 -0.6243
 4731SOL     OW18695   0.374   1.642   1.229 -0.0142 -0.4976  0.2118
 4731SOL    HW218696   0.401   1.702   1.160 -2.2623  0.7148  0.2993
 4731SOL    HW318697   0.422   1.671   1.307 -0.3193  0.5516  0.0150
 4731SOL    MW418698   0.384   1.653   1.230  0.5059  0.4662  0.5852
 4732SOL     OW18699   4.053   1.939   0.109  0.2448  0.1963  0.3497
 4732SOL    HW218700   4.125   1.927   0.048  1.4719 -2.4160  2.1358
 4732SOL    HW318701   4.094   1.940   0.196 -1.7165  0.3334  1.3464
 4732SOL    MW418702   4.068   1.937   0.113  0.4520  0.1501 -0.9511
 4733SOL     OW18703   6.191   2.828   5.631 -0.3325 -0.3073  0.1030
 4733SOL    HW218704   6.196   2.732   5.631 -0.2086 -0.3115  1.1866
 4733SOL    HW318705   6.103   2.847   5.666 -1.2730 -0.0320 -2.2428
 4733SOL    MW418706   6.180   2.818   5.636  0.2773 -0.0274  0.3721
 4734SOL     OW18707   2.668   0.189   2.973  0.3998 -0.4751  0.1572
 4734SOL    HW218708   2.757   0.197   2.937  0.3836  1.6880  0.4541
 4734SOL    HW318709   2.615   0.246   2.917 -0.2546  0.3367  1.5538
 4734SOL    MW418710   2.673   0.198   2.960  0.5297  0.2373 -0.5046
 4735SOL     OW18711   4.923   5.408   3.101  0.0994 -0.4164 -0.0670
 4735SOL    HW218712   4.916   5.320   3.138  2.8597 -1.3553 -1.4671
 4735SOL    HW318713   5.008   5.440   3.131  0.4699  0.5280 -1.9888
 4735SOL    MW418714   4.934   5.400   3.110 -0.1562  0.9502  0.0568
 4736SOL     OW18715   1.013   0.447   5.443  0.1762  0.2661  0.1074
 4736SOL    HW218716   0.956   0.505   5.494 -0.2918  0.9569 -1.1576
 4736SOL    HW318717   0.955   0.377   5.413  0.3341  0.1442  0.0846
 4736SOL    MW418718   0.997   0.446   5.446  0.0562  0.2371 -0.1936
 4737SOL     OW18719   4.400   5.350   2.708  0.0023 -0.2084 -0.4519
 4737SOL    HW218720   4.390   5.259   2.678 -1.3103 -0.2832  0.1301
 4737SOL    HW318721   4.436   5.342   2.796 -0.3653 -0.1780 -0.2987
 4737SOL    MW418722   4.403   5.337   2.715 -0.9220  0.1810  0.1728
 4738SOL     OW18723   3.473   6.266   2.090 -0.4399  0.1872 -0.4386
 4738SOL    HW218724   3.511   6.353   2.096 -1.5548  0.5780  1.9551
 4738SOL    HW318725   3.431   6.265   2.004 -1.1730  2.3583 -0.1649
 4738SOL    MW418726   3.472   6.277   2.079  0.6217 -0.2652 -0.1742
 4739SOL     OW18727   5.166   4.193   1.046  0.0446 -0.7960  0.5210
 4739SOL    HW218728   5.072   4.194   1.029  0.1889  0.9313 -0.3860
 4739SOL    HW318729   5.201   4.131   0.982 -0.4826 -1.6596  1.0447
 4739SOL    MW418730   5.158   4.185   1.036 -0.6198 -0.3231 -0.2164
 4740SOL     OW18731   3.783   2.267   4.027  0.3425 -0.5569  0.5758
 4740SOL    HW218732   3.738   2.291   4.108 -1.3944 -0.1748 -0.4540
 4740SOL    HW318733   3.876   2.278   4.047  0.0517 -1.7125  2.8990
 4740SOL    MW418734   3.789   2.272   4.040 -0.5498 -0.4244 -0.0687
 4741SOL     OW18735   2.494   2.070   1.068 -0.8574 -0.2277 -0.2795
 4741SOL    HW218736   2.550   2.145   1.046 -0.1868 -0.4054  0.7767
 4741SOL    HW318737   2.409   2.092   1.029 -1.2407  1.9858  1.5852
 4741SOL    MW418738   2.490   2.083   1.060  0.0970  0.0397  0.0193
 4742SOL     OW18739   3.872   2.438   5.459 -0.3656 -0.4475 -0.1795
 4742SOL    HW218740   3.955   2.392   5.448 -0.3383 -0.7101  1.0545
 4742SOL    HW318741   3.880   2.485   5.542 -2.0326 -1.8124  0.8183
 4742SOL    MW418742   3.884   2.438   5.468 -0.5918 -0.0829  0.1917
 4743SOL     OW18743   0.959   3.623   2.408 -0.1739  0.0216  0.5363
 4743SOL    HW218744   1.020   3.552   2.390  0.6779  0.3628  1.9059
 4743SOL    HW318745   0.896   3.620   2.335  1.8475  0.0991 -1.3245
 4743SOL    MW418746   0.959   3.613   2.396  0.2296 -0.5239 -0.2787
 4744SOL     OW18747   4.534   3.014   4.861 -0.1700 -0.2470  0.5502
 4744SOL    HW218748   4.546   3.068   4.939  1.5812 -0.0188  0.1491
 4744SOL    HW318749   4.478   3.066   4.804  0.6260  0.6837  0.6091
 4744SOL    MW418750   4.528   3.028   4.864 -0.1771  0.2485  0.0286
 4745SOL     OW18751   3.319   4.624   3.679 -0.0071 -0.0270  0.0619
 4745SOL    HW218752   3.308   4.530   3.696 -0.7850 -0.1304 -0.8865
 4745SOL    HW318753   3.230   4.659   3.682  0.0973  0.3939 -1.0631
 4745SOL    MW418754   3.306   4.616   3.682 -0.1159  0.2249  0.0109
 4746SOL     OW18755   2.270   5.938   1.980 -0.9742  0.1994  0.0864
 4746SOL    HW218756   2.260   5.955   1.886 -1.7218  0.9286  0.2803
 4746SOL    HW318757   2.186   5.902   2.007 -1.2390  1.2663  0.7288
 4746SOL    MW418758   2.258   5.936   1.971 -0.1375  0.3883 -0.5687
 4747SOL     OW18759   1.898   3.862   5.030 -0.8461 -0.1065 -0.2628
 4747SOL    HW218760   1.838   3.927   4.993 -0.6379  0.2120 -0.0369
 4747SOL    HW318761   1.965   3.913   5.074 -0.5981 -0.4731 -0.2147
 4747SOL    MW418762   1.899   3.877   5.031 -0.3452  0.1704 -0.2612
 4748SOL     OW18763   3.122   5.592   1.068 -0.0899 -0.3963  0.0036
 4748SOL    HW218764   3.048   5.537   1.041 -0.8238  0.7513 -0.3887
 4748SOL    HW318765   3.198   5.535   1.060 -0.5278 -0.7475 -2.4565
 4748SOL    MW418766   3.122   5.577   1.064 -0.4194  0.0784 -0.3579
 4749SOL     OW18767   3.026   4.589   3.359 -0.0347 -0.0259 -0.2369
 4749SOL    HW218768   3.062   4.567   3.445 -0.4261  0.9877  0.2057
 4749SOL    HW318769   3.101   4.585   3.300  0.2723 -0.5647  0.1788
 4749SOL    MW418770   3.041   4.586   3.363 -0.6650  0.4484 -0.1603
 4750SOL     OW18771   2.172   3.515   3.955 -0.2029 -0.5245 -0.3105
 4750SOL    HW218772   2.119   3.449   3.910 -0.0937 -1.6158  1.1187
 4750SOL    HW318773   2.189   3.581   3.887  0.3007 -2.3009 -2.0008
 4750SOL    MW418774   2.167   3.515   3.940  0.4427 -0.0120 -0.7641
 4751SOL     OW18775   5.610   4.347   4.408 -0.1613  0.6492 -0.7246
 4751SOL    HW218776   5.658   4.357   4.490 -2.7265 -0.4092  1.0393
 4751SOL    HW318777   5.634   4.260   4.376  0.3058  0.7782 -0.7315
 4751SOL    MW418778   5.619   4.337   4.414 -0.5054 -0.1083 -0.2336
 4752SOL     OW18779   1.337   5.303   5.768 -0.1270  0.1271 -0.3641
 4752SOL    HW218780   1.260   5.247   5.780 -0.2871  0.5912  1.0166
 4752SOL    HW318781   1.348   5.309   5.673 -1.0772 -0.9135 -0.5640
 4752SOL    MW418782   1.328   5.297   5.757  0.1332 -0.4592  0.1909
 4753SOL     OW18783   0.040   5.924   0.664 -0.0442  0.4157 -0.6170
 4753SOL    HW218784   0.075   5.893   0.581  1.7510  0.7728 -0.0566
 4753SOL    HW318785  -0.001   6.008   0.643  0.2243  0.4084 -1.1846
 4753SOL    MW418786   0.040   5.931   0.651 -0.0033 -0.0616  0.3611
 4754SOL     OW18787   1.662   4.888   4.273 -0.0977 -0.4370  0.5152
 4754SOL    HW218788   1.751   4.881   4.238 -0.4412  0.3583 -0.5787
 4754SOL    HW318789   1.622   4.803   4.255  0.0129 -0.3297 -0.2823
 4754SOL    MW418790   1.668   4.876   4.266 -0.1356  0.3950  0.4666
 4755SOL     OW18791   5.507   3.479   2.206 -0.3340  0.0539  0.5091
 4755SOL    HW218792   5.556   3.404   2.239 -0.8593  0.1352  1.5273
 4755SOL    HW318793   5.482   3.527   2.285  0.2523  1.4763 -0.1312
 4755SOL    MW418794   5.510   3.476   2.221  0.2396 -0.6339 -0.3453
 4756SOL     OW18795   4.044   2.165   1.157  0.0305 -0.3842  0.3188
 4756SOL    HW218796   4.087   2.183   1.241 -1.8787 -0.0615  1.2719
 4756SOL    HW318797   4.067   2.240   1.102 -2.2572  1.7133  2.0373
 4756SOL    MW418798   4.053   2.177   1.161  0.3249 -0.2635 -0.2047
 4757SOL     OW18799   6.102   1.448   3.931  0.2199  0.1319  0.0579
 4757SOL    HW218800   6.059   1.493   4.003 -2.4234  0.9023 -1.8228
 4757SOL    HW318801   6.074   1.357   3.940  0.1049  0.1758  0.1476
 4757SOL    MW418802   6.092   1.442   3.942  0.5827 -0.2293  0.3858
 4758SOL     OW18803   0.565   6.287   0.667 -0.4696  0.5761  0.2936
 4758SOL    HW218804   0.587   6.198   0.639 -0.8291  0.4695  0.3474
 4758SOL    HW318805   0.552   6.335   0.585 -2.8154 -0.0552  0.2490
 4758SOL    MW418806   0.566   6.281   0.652  0.0126 -0.2016 -0.2257
 4759SOL     OW18807   0.929   1.651   3.209  0.6440  0.1180  0.2421
 4759SOL    HW218808   0.907   1.567   3.249 -0.0730  1.3187  2.4983
 4759SOL    HW318809   1.024   1.647   3.196  0.8751 -0.4113  1.9151
 4759SOL    MW418810   0.939   1.639   3.212 -0.1230 -0.3726 -0.3841
 4760SOL     OW18811   0.423   6.300   3.176 -0.5575  0.6857 -0.0329
 4760SOL    HW218812   0.374   6.380   3.195  1.6855  2.2790 -0.5174
 4760SOL    HW318813   0.475   6.285   3.255 -1.0729 -0.4302  0.1151
 4760SOL    MW418814   0.423   6.308   3.189 -0.5057  0.6560  0.9626
 4761SOL     OW18815   6.397   0.184   4.673  1.2906 -0.3123 -0.4140
 4761SOL    HW218816   6.474   0.129   4.689 -0.0540 -1.8177  1.4068
 4761SOL    HW318817   6.375   0.220   4.759 -1.0919 -1.4373 -0.4593
 4761SOL    MW418818   6.404   0.182   4.687  0.4341 -0.4882  0.5924
 4762SOL     OW18819   4.734   1.038   2.839 -0.3730 -0.1200  0.0723
 4762SOL    HW218820   4.771   1.091   2.909  1.2250 -0.1659 -0.6853
 4762SOL    HW318821   4.666   1.094   2.800 -0.1313  0.5453  0.5807
 4762SOL    MW418822   4.730   1.053   2.843  0.0112  0.3008 -0.0964
 4763SOL     OW18823   4.874   1.055   2.005  0.0219 -0.4424 -0.6181
 4763SOL    HW218824   4.884   1.025   1.914 -1.1739 -1.5244 -0.4231
 4763SOL    HW318825   4.783   1.038   2.026  0.1654  0.2139  0.6663
 4763SOL    MW418826   4.864   1.049   1.995 -0.2019  0.0065 -0.2652
 4764SOL     OW18827   5.168   4.511   3.432 -0.0409 -0.3682  0.4457
 4764SOL    HW218828   5.163   4.431   3.484 -0.6375  0.6122  1.9634
 4764SOL    HW318829   5.077   4.532   3.411  0.2235 -1.1792 -1.7573
 4764SOL    MW418830   5.156   4.503   3.436  0.3589  0.5671  0.5108
 4765SOL     OW18831   0.848   1.771   4.873  0.5320 -0.1943  0.2876
 4765SOL    HW218832   0.885   1.732   4.951 -0.5134 -0.1398  0.8310
 4765SOL    HW318833   0.841   1.698   4.811  0.1940 -0.5182  0.6947
 4765SOL    MW418834   0.852   1.756   4.875 -0.2611 -0.1218  0.6206
 4766SOL     OW18835   4.451   0.772   1.157 -0.3912 -0.3200  0.8374
 4766SOL    HW218836   4.408   0.757   1.073  1.0567 -0.9464  0.1768
 4766SOL    HW318837   4.492   0.689   1.179 -0.2036  0.0185  1.8616
 4766SOL    MW418838   4.451   0.759   1.149 -0.1660  0.1882  0.2709
 4767SOL     OW18839   4.423   6.004   0.885 -0.6142 -0.2092 -0.2772
 4767SOL    HW218840   4.433   5.930   0.825 -0.9468  0.0024 -0.5966
 4767SOL    HW318841   4.441   6.081   0.831  1.6598 -0.1190  0.4761
 4767SOL    MW418842   4.427   6.005   0.869 -0.6526  0.1680 -0.3142
 4768SOL     OW18843   1.318   3.675   3.119  0.3604 -0.3641  0.3951
 4768SOL    HW218844   1.369   3.596   3.104 -1.0929 -1.6495  1.9142
 4768SOL    HW318845   1.312   3.682   3.214 -0.6253  0.8527  0.2647
 4768SOL    MW418846   1.324   3.666   3.130  0.4455  0.2549 -0.7354
 4769SOL     OW18847   0.712   4.432   2.820  0.6706 -0.7659  0.0027
 4769SOL    HW218848   0.648   4.465   2.883 -1.4195 -2.5277 -1.0714
 4769SOL    HW318849   0.678   4.347   2.793  3.8963 -2.1536 -0.0860
 4769SOL    MW418850   0.699   4.425   2.825 -0.2501  0.1952  0.6287
 4770SOL     OW18851   2.586   0.406   5.167 -0.7038 -0.2224  0.9779
 4770SOL    HW218852   2.602   0.404   5.072  1.5982 -0.1051  1.3157
 4770SOL    HW318853   2.580   0.314   5.191  0.9752 -0.3558  1.0124
 4770SOL    MW418854   2.587   0.393   5.157  0.0601 -0.4875 -0.3109
 4771SOL     OW18855   0.533   3.328   3.427  0.6078 -0.4834 -0.2902
 4771SOL    HW218856   0.541   3.386   3.502  0.7842 -1.9909  0.9079
 4771SOL    HW318857   0.522   3.241   3.465 -0.8687 -1.1093 -1.9959
 4771SOL    MW418858   0.532   3.324   3.442 -0.9648  0.7317 -0.1650
 4772SOL     OW18859   6.191   2.688   6.171 -0.2979  0.0403 -0.1755
 4772SOL    HW218860   6.163   2.677   6.261  0.3932 -0.4931 -0.0176
 4772SOL    HW318861   6.283   2.716   6.177  0.9518 -3.4143 -0.7024
 4772SOL    MW418862   6.200   2.690   6.183  0.1837  0.0164  0.0441
 4773SOL     OW18863   4.971   6.170   4.829 -0.1094  0.3423 -0.2866
 4773SOL    HW218864   4.911   6.204   4.895  0.7068  0.7380  0.2710
 4773SOL    HW318865   4.914   6.133   4.762 -0.9713  0.6745  0.2405
 4773SOL    MW418866   4.955   6.169   4.829  0.0336  0.0934 -0.5910
 4774SOL     OW18867   2.535   5.590   3.477  0.3822 -0.1811  0.0213
 4774SOL    HW218868   2.615   5.642   3.482 -0.1211  0.6302 -0.1775
 4774SOL    HW318869   2.551   5.514   3.533  0.6083  0.8895  1.4361
 4774SOL    MW418870   2.547   5.587   3.485 -0.1552  0.0426  0.4777
 4775SOL     OW18871   2.117   2.359   0.215  0.6485 -0.3213 -0.1943
 4775SOL    HW218872   2.096   2.268   0.197  0.3333 -0.0209 -1.4065
 4775SOL    HW318873   2.036   2.397   0.249  0.4377 -0.1996 -0.8331
 4775SOL    MW418874   2.104   2.352   0.217 -0.1520  0.5085 -0.2592
 4776SOL     OW18875   4.417   5.648   5.997 -0.1797  0.2000 -0.3277
 4776SOL    HW218876   4.488   5.592   6.029 -0.9889 -0.9938 -0.5391
 4776SOL    HW318877   4.412   5.628   5.904 -0.1883  0.9677 -0.4898
 4776SOL    MW418878   4.426   5.638   5.989  0.3090  0.2909  0.3899
 4777SOL     OW18879   2.925   4.355   3.237 -0.0594 -0.4209  0.5243
 4777SOL    HW218880   2.924   4.286   3.303  0.4160 -0.3489  0.6153
 4777SOL    HW318881   2.951   4.433   3.286 -0.9249 -0.1013  0.4908
 4777SOL    MW418882   2.929   4.356   3.252  0.3543 -0.7526  0.0664
 4778SOL     OW18883   4.939   0.005   6.089  0.3018  0.0171  0.1203
 4778SOL    HW218884   4.991  -0.025   6.163  0.2005 -0.2233  0.0947
 4778SOL    HW318885   4.987   0.081   6.056  0.7498 -0.3201 -0.0245
 4778SOL    MW418886   4.953   0.011   6.094  0.4623  0.1511 -0.6337
 4779SOL     OW18887   6.106   6.105   5.722  0.2391  0.1658  0.3797
 4779SOL    HW218888   6.019   6.122   5.759  0.8118  1.0215  1.4144
 4779SOL    HW318889   6.136   6.026   5.767  0.2079  0.1919  0.4477
 4779SOL    MW418890   6.099   6.097   5.733 -0.1280 -0.3997  0.0245
 4780SOL     OW18891   0.475   3.722   2.178 -0.3774  0.2751 -0.1806
 4780SOL    HW218892   0.442   3.810   2.160 -1.0776  0.1697  0.5522
 4780SOL    HW318893   0.423   3.691   2.251  0.7441 -0.2555  0.4199
 4780SOL    MW418894   0.464   3.730   2.185 -0.2363 -0.0443 -0.0576
 4781SOL     OW18895   1.502   0.329   5.896  0.1215  0.1794 -0.5146
 4781SOL    HW218896   1.490   0.417   5.862 -0.2821  0.7413  0.9926
 4781SOL    HW318897   1.597   0.318   5.902  0.2520  1.7789  2.2158
 4781SOL    MW418898   1.513   0.339   5.892 -0.1942 -0.1635 -0.1407
 4782SOL     OW18899   1.300   0.746   1.369 -0.5184  0.2658 -0.0432
 4782SOL    HW218900   1.222   0.697   1.342 -0.0207 -1.9575  2.2339
 4782SOL    HW318901   1.265   0.824   1.411 -1.4904 -0.1818  0.0152
 4782SOL    MW418902   1.285   0.750   1.371  0.1830 -0.2212 -0.2691
 4783SOL     OW18903   5.667   4.846   4.690  0.0460  0.1462 -0.1898
 4783SOL    HW218904   5.621   4.814   4.768  0.9853  0.7304  0.6275
 4783SOL    HW318905   5.735   4.903   4.724  1.7101 -1.0620 -1.3238
 4783SOL    MW418906   5.670   4.849   4.705 -0.1259  0.1665  0.3764
 4784SOL     OW18907   4.241   2.818   2.297  0.2894  0.4195 -0.0201
 4784SOL    HW218908   4.179   2.862   2.356 -0.7065  0.7562 -1.2524
 4784SOL    HW318909   4.276   2.889   2.242 -1.3502 -0.2359 -2.0510
 4784SOL    MW418910   4.237   2.834   2.297  0.3709  0.2210 -0.8268
 4785SOL     OW18911   3.098   4.269   2.991 -0.6332 -0.9406  0.0764
 4785SOL    HW218912   3.044   4.294   3.066 -0.8696  1.6010 -0.8348
 4785SOL    HW318913   3.177   4.323   2.998  0.0235 -1.7490 -0.7213
 4785SOL    MW418914   3.101   4.279   3.001  0.0349  0.0077 -0.5035
 4786SOL     OW18915   0.234   6.105   4.224  0.1609 -0.1834 -0.7128
 4786SOL    HW218916   0.140   6.088   4.224  0.3333 -1.2698 -0.1154
 4786SOL    HW318917   0.243   6.188   4.271 -0.6305  1.0615 -2.6305
 4786SOL    MW418918   0.223   6.113   4.231 -0.5220  0.2451  0.1485
 4787SOL     OW18919   6.321   1.202   1.086  0.6208 -0.5056 -0.5433
 4787SOL    HW218920   6.389   1.152   1.131 -1.4536 -0.7375  2.6711
 4787SOL    HW318921   6.242   1.148   1.092 -0.6950  1.2500 -0.8577
 4787SOL    MW418922   6.319   1.189   1.093  0.0940 -0.9035  0.1909
 4788SOL     OW18923   5.511   3.939   1.205 -0.3688  0.2149  0.1355
 4788SOL    HW218924   5.557   4.013   1.163  0.8793  0.3992  1.7088
 4788SOL    HW318925   5.546   3.938   1.294 -2.5300 -0.4872  1.0167
 4788SOL    MW418926   5.522   3.949   1.211 -0.0590 -0.1561  0.0717
 4789SOL     OW18927   2.122   2.558   1.890  0.5178  0.0390  0.1850
 4789SOL    HW218928   2.180   2.514   1.828  1.1463  0.9015  0.1433
 4789SOL    HW318929   2.108   2.645   1.853 -2.1642 -0.6595 -0.6440
 4789SOL    MW418930   2.128   2.564   1.877  0.2315 -0.4515  0.1680
 4790SOL     OW18931   5.464   1.844   2.382  0.2434 -0.2121 -0.0123
 4790SOL    HW218932   5.462   1.786   2.458 -0.5576 -0.5683 -0.2962
 4790SOL    HW318933   5.463   1.932   2.420 -0.8753 -0.3799  0.4041
 4790SOL    MW418934   5.463   1.848   2.397 -0.0330 -0.6078 -0.1444
 4791SOL     OW18935   4.862   2.657   5.098  0.1087  0.3971 -0.1049
 4791SOL    HW218936   4.784   2.650   5.152 -0.1965 -1.2818 -0.7060
 4791SOL    HW318937   4.842   2.727   5.036 -0.9837 -0.1033 -0.3370
 4791SOL    MW418938   4.849   2.665   5.097  0.5376 -0.6655  0.3775
 4792SOL     OW18939   0.308   0.555   2.116 -0.2152 -0.2250 -0.2631
 4792SOL    HW218940   0.248   0.588   2.183 -0.2752 -0.7817 -0.0383
 4792SOL    HW318941   0.393   0.548   2.160  0.0751  0.7606 -0.6370
 4792SOL    MW418942   0.311   0.559   2.130  0.6939  1.3274 -0.4792
 4793SOL     OW18943   1.550   2.566   4.897 -0.6371  0.5372  0.3946
 4793SOL    HW218944   1.551   2.514   4.817  0.7774  1.1568 -0.0304
 4793SOL    HW318945   1.549   2.657   4.866 -0.3051  0.7813  1.0688
 4793SOL    MW418946   1.550   2.571   4.883  0.2339 -0.2541 -0.7211
 4794SOL     OW18947   2.725   2.317   6.380 -0.6061 -0.1315  0.3857
 4794SOL    HW218948   2.746   2.340   6.471 -5.7439  1.0391  1.5707
 4794SOL    HW318949   2.728   2.400   6.332 -1.1422 -0.1666  0.2874
 4794SOL    MW418950   2.728   2.331   6.386 -0.7587  0.1049  0.0646
 4795SOL     OW18951   4.039   0.402   2.062 -0.0126  0.1891  0.0131
 4795SOL    HW218952   4.126   0.437   2.043 -0.0596  1.2620  1.5549
 4795SOL    HW318953   3.980   0.460   2.014  0.0357  0.7235  0.5865
 4795SOL    MW418954   4.043   0.414   2.053  0.3919  0.3715  0.4165
 4796SOL     OW18955   0.067   5.968   3.637 -0.0251  0.1815  0.0521
 4796SOL    HW218956   0.058   5.930   3.550 -1.0270  0.6044 -0.0452
 4796SOL    HW318957  -0.012   5.939   3.683 -0.6122  1.8003  0.0968
 4796SOL    MW418958   0.055   5.959   3.632  0.9755 -0.3194  0.2747
 4797SOL     OW18959   2.500   1.310   0.947 -0.9999 -0.2584  0.4365
 4797SOL    HW218960   2.545   1.254   1.011  2.4264  2.2127  0.4935
 4797SOL    HW318961   2.427   1.348   0.995 -0.8070 -1.3772  1.6682
 4797SOL    MW418962   2.497   1.307   0.962 -0.8062 -0.3329 -0.1264
 4798SOL     OW18963   3.072   5.991   0.703  0.0646 -0.0399  0.4323
 4798SOL    HW218964   3.065   5.915   0.761  0.4393 -0.8745 -0.5674
 4798SOL    HW318965   2.983   6.024   0.696  0.1039  0.4745  1.9544
 4798SOL    MW418966   3.059   5.985   0.710  0.4511 -0.5623 -0.2698
 4799SOL     OW18967   4.621   5.196   6.101  0.2221  0.3494  0.4453
 4799SOL    HW218968   4.609   5.290   6.090  0.4412  0.4279  0.8657
 4799SOL    HW318969   4.533   5.162   6.114 -0.0208  0.2932 -1.1601
 4799SOL    MW418970   4.608   5.204   6.101 -0.6675  0.5705  0.2333
 4800SOL     OW18971   1.086   5.316   2.693  0.0972 -0.1301 -0.3190
 4800SOL    HW218972   1.005   5.299   2.644  0.2677  1.5511 -1.2546
 4800SOL    HW318973   1.055   5.337   2.782 -0.3906 -0.7548 -0.3307
 4800SOL    MW418974   1.071   5.316   2.698  0.0307 -0.0519  0.2122
 4801SOL     OW18975   2.444   0.351   1.705  0.0051  0.1160  0.6487
 4801SOL    HW218976   2.494   0.391   1.633  0.0315 -1.1033 -0.0220
 4801SOL    HW318977   2.510   0.333   1.772  0.3122 -0.5724  0.1672
 4801SOL    MW418978   2.460   0.354   1.705 -0.3191 -0.1320  0.0641
 4802SOL     OW18979   5.455   2.391   5.054  0.0701  0.0279  0.5924
 4802SOL    HW218980   5.378   2.442   5.080 -1.0696 -0.5429 -1.4205
 4802SOL    HW318981   5.506   2.451   5.000  0.7046  0.1935  1.3670
 4802SOL    MW418982   5.451   2.406   5.050  0.3879 -0.3734 -0.1810
 4803SOL     OW18983   3.974   0.571   1.284  0.2422 -0.7851  0.1089
 4803SOL    HW218984   4.069   0.577   1.275  0.2291  0.3135  0.6170
 4803SOL    HW318985   3.960   0.488   1.330  1.0395 -0.3673  1.1369
 4803SOL    MW418986   3.984   0.561   1.289  0.5625 -0.5275  0.2494
 4804SOL     OW18987   1.241   3.394   4.060  0.0237 -0.3507 -0.1364
 4804SOL    HW218988   1.168   3.331   4.055  0.9495 -1.3524 -2.6695
 4804SOL    HW318989   1.312   3.344   4.100  0.1037 -0.2415 -0.1439
 4804SOL    MW418990   1.241   3.379   4.065  0.2821  0.0649  0.2572
 4805SOL     OW18991   2.907   5.511   4.307  0.2607  0.4182 -0.1923
 4805SOL    HW218992   2.817   5.480   4.295 -0.1034  1.1843  0.3997
 4805SOL    HW318993   2.954   5.482   4.229  0.0449 -1.8510  0.4505
 4805SOL    MW418994   2.901   5.503   4.295 -0.1660 -0.2207 -0.0931
 4806SOL     OW18995   3.151   5.295   4.224 -0.0501 -0.8915 -0.2550
 4806SOL    HW218996   3.196   5.228   4.277 -0.4872  0.3713  1.8241
 4806SOL    HW318997   3.079   5.247   4.182  0.5544 -2.0199 -0.0532
 4806SOL    MW418998   3.148   5.280   4.226  0.4801  0.2970  0.0993
 4807SOL     OW18999   6.218   3.826   0.677 -0.4151 -0.6673 -0.6228
 4807SOL    HW219000   6.243   3.766   0.747  1.4086 -0.7452 -1.2893
 4807SOL    HW319001   6.226   3.914   0.716 -2.4988 -0.7661  0.1684
 4807SOL    MW419002   6.222   3.830   0.691 -0.0830  0.2311 -0.1516
 4808SOL     OW19003   0.100   1.539   0.111 -0.4647 -0.8112 -0.0157
 4808SOL    HW219004   0.022   1.583   0.144 -0.8114 -1.6153  0.2464
 4808SOL    HW319005   0.090   1.448   0.138 -0.4593 -1.3743 -1.8016
 4808SOL    MW419006   0.089   1.533   0.119  0.2822  0.5339 -0.0513
 4809SOL     OW19007   4.782   3.720   4.844 -0.2105  0.6781  0.1646
 4809SOL    HW219008   4.746   3.806   4.820 -1.0575  0.3076  0.0520
 4809SOL    HW319009   4.706   3.661   4.841  0.5572 -0.3046 -0.8690
 4809SOL    MW419010   4.767   3.724   4.841 -0.5594 -0.2925  0.4393
 4810SOL     OW19011   1.706   5.161   0.732  0.6083  0.0412  0.0243
 4810SOL    HW219012   1.676   5.237   0.782 -0.9513  0.9207 -2.1093
 4810SOL    HW319013   1.777   5.195   0.677  1.3875 -0.5976  0.6076
 4810SOL    MW419014   1.712   5.175   0.731  0.3888 -0.0088 -0.0392
 4811SOL     OW19015   3.571   1.637   3.966  0.1420 -0.7478  0.0444
 4811SOL    HW219016   3.490   1.663   3.923 -1.1554 -1.6918  1.7618
 4811SOL    HW319017   3.618   1.719   3.982 -1.8600  0.1919  1.5720
 4811SOL    MW419018   3.567   1.651   3.962  0.2317 -0.6003  0.0657
 4812SOL     OW19019   1.655   6.173   3.069 -0.1852  0.4269 -0.1040
 4812SOL    HW219020   1.622   6.095   3.113  0.9588 -0.7888 -1.3057
 4812SOL    HW319021   1.618   6.169   2.981  1.2413  0.2766 -0.7284
 4812SOL    MW419022   1.646   6.162   3.063  0.0486 -0.2948 -0.4609
 4813SOL     OW19023   5.403   2.509   1.147  0.0096 -0.1499 -0.7297
 4813SOL    HW219024   5.474   2.513   1.083 -0.3356 -2.1569 -1.2977
 4813SOL    HW319025   5.445   2.528   1.231  1.3119 -1.5547 -1.0176
 4813SOL    MW419026   5.418   2.512   1.149  0.1916 -0.1870 -0.3609
 4814SOL     OW19027   3.586   3.161   3.036  0.0008  0.6558 -0.4328
 4814SOL    HW219028   3.574   3.249   3.002 -2.7125  1.6346  2.6051
 4814SOL    HW319029   3.563   3.167   3.129  3.9321 -2.3904  1.0166
 4814SOL    MW419030   3.581   3.173   3.043 -0.4241 -0.2110 -0.5846
 4815SOL     OW19031   2.740   5.416   3.082  0.4172 -0.0496 -0.3824
 4815SOL    HW219032   2.756   5.395   2.990 -2.9925 -0.0498 -1.0855
 4815SOL    HW319033   2.654   5.379   3.101  0.6925  0.5806  2.6441
 4815SOL    MW419034   2.731   5.408   3.072  0.2969 -0.1622  0.8585
 4816SOL     OW19035   0.318   0.305   3.825 -0.1603 -0.1355  0.5333
 4816SOL    HW219036   0.253   0.375   3.819  0.6723  0.6187  0.0671
 4816SOL    HW319037   0.402   0.349   3.819  0.4253 -1.0568  1.5237
 4816SOL    MW419038   0.320   0.320   3.823  0.3920  0.0916 -0.2004
 4817SOL     OW19039   2.985   1.217   0.365 -0.6202 -0.5327  0.1396
 4817SOL    HW219040   2.897   1.185   0.386 -0.7007  1.1176  2.8976
 4817SOL    HW319041   3.033   1.208   0.447  0.9547  1.1033 -0.5396
 4817SOL    MW419042   2.979   1.212   0.379  0.0831  0.4552 -0.0356
 4818SOL     OW19043   2.425   5.895   2.361  0.0346 -0.0082 -0.6106
 4818SOL    HW219044   2.502   5.891   2.418 -0.8653 -2.3167  0.6204
 4818SOL    HW319045   2.449   5.843   2.284 -0.1023 -0.2994 -0.4594
 4818SOL    MW419046   2.439   5.888   2.359 -0.0407  0.5123  0.7059
 4819SOL     OW19047   6.186   5.086   3.528  0.5473 -0.5571 -0.3913
 4819SOL    HW219048   6.183   5.047   3.615 -2.1917 -0.1757 -0.2158
 4819SOL    HW319049   6.168   5.014   3.468  0.7126 -0.5065 -0.5032
 4819SOL    MW419050   6.183   5.072   3.532  0.2956 -0.2324  0.5903
 4820SOL     OW19051   1.970   0.299   3.952  0.2519  0.3299 -0.1502
 4820SOL    HW219052   2.038   0.233   3.939 -0.7615 -0.6651 -0.5446
 4820SOL    HW319053   1.984   0.362   3.881  1.2137  0.5505  0.2196
 4820SOL    MW419054   1.981   0.299   3.941  0.4841 -0.3795  0.1484
 4821SOL     OW19055   2.705   6.181   0.020  0.1249 -0.6470 -0.0378
 4821SOL    HW219056   2.738   6.096   0.050 -0.8509 -1.1788 -0.4271
 4821SOL    HW319057   2.732   6.242   0.089 -0.0697 -1.4495  0.7817
 4821SOL    MW419058   2.713   6.178   0.033 -0.2222  0.3505 -0.8341
 4822SOL     OW19059   3.113   5.606   2.532  0.1703  0.1630 -0.0215
 4822SOL    HW219060   3.199   5.567   2.517 -0.1957 -0.2952 -0.9878
 4822SOL    HW319061   3.060   5.534   2.567 -0.4152 -0.1569 -1.5000
 4822SOL    MW419062   3.118   5.592   2.535 -0.5616 -0.2993  0.5746
 4823SOL     OW19063   0.738   1.831   5.802 -0.1534 -0.4126 -0.5184
 4823SOL    HW219064   0.644   1.848   5.792 -0.0568  0.4642 -0.0306
 4823SOL    HW319065   0.776   1.857   5.718 -0.3190 -0.5708 -0.6436
 4823SOL    MW419066   0.730   1.837   5.790 -0.0704 -0.1571 -0.2342
 4824SOL     OW19067   6.346   4.262   3.654 -0.3411 -0.0786 -0.2656
 4824SOL    HW219068   6.350   4.348   3.613 -2.3945 -0.4146 -1.2692
 4824SOL    HW319069   6.310   4.204   3.587  0.3157 -1.5939  0.6241
 4824SOL    MW419070   6.342   4.266   3.640 -0.3974 -0.4306 -0.2989
 4825SOL     OW19071   4.023   3.788   4.567  0.1524  0.2324  0.5070
 4825SOL    HW219072   4.011   3.856   4.501 -0.5844 -0.9307 -0.6025
 4825SOL    HW319073   3.997   3.829   4.649 -3.5031  0.3840 -0.5645
 4825SOL    MW419074   4.018   3.803   4.569  0.1214  0.1358 -0.4495
 4826SOL     OW19075   2.457   0.511   3.199 -0.2630  0.0563 -0.1677
 4826SOL    HW219076   2.456   0.546   3.110 -1.5633 -0.9232 -0.5854
 4826SOL    HW319077   2.505   0.576   3.250  0.5882  0.6017 -1.5909
 4826SOL    MW419078   2.463   0.524   3.194 -0.1154 -0.7371 -0.1356
 4827SOL     OW19079   4.043   2.445   1.819  0.3515  0.5541 -0.1261
 4827SOL    HW219080   4.095   2.525   1.818  3.1058 -1.0705  0.5319
 4827SOL    HW319081   4.050   2.412   1.909 -2.2903  0.4403  0.1256
 4827SOL    MW419082   4.051   2.451   1.831 -0.1579  0.5500 -0.4518
 4828SOL     OW19083   1.058   6.293   3.708  0.3328 -0.3135  0.1973
 4828SOL    HW219084   1.016   6.229   3.650  0.2094 -1.2617  1.2821
 4828SOL    HW319085   1.073   6.244   3.789  0.8491  0.8645  0.8269
 4828SOL    MW419086   1.054   6.278   3.711  0.2349 -0.2891  0.2965
 4829SOL     OW19087   0.673   0.116   2.999 -0.1901  0.1065 -0.3447
 4829SOL    HW219088   0.594   0.069   2.973  0.4647 -1.2818  0.0648
 4829SOL    HW319089   0.701   0.074   3.080  1.6157 -0.2863 -1.1031
 4829SOL    MW419090   0.666   0.104   3.006  0.0806 -0.3503  0.0793
 4830SOL     OW19091   0.235   0.959   3.220  0.3285 -0.1114 -0.3331
 4830SOL    HW219092   0.248   1.054   3.220  0.0245 -0.0181  1.9345
 4830SOL    HW319093   0.322   0.923   3.210  0.5333  0.4101 -0.4840
 4830SOL    MW419094   0.248   0.967   3.219  0.2176 -0.4176 -0.5419
 4831SOL     OW19095   4.365   2.407   0.997 -0.0579  0.4889 -0.3468
 4831SOL    HW219096   4.459   2.403   1.013 -0.2287 -0.1125  0.5759
 4831SOL    HW319097   4.325   2.396   1.083 -1.0183 -2.0253 -1.0372
 4831SOL    MW419098   4.372   2.405   1.010  0.0554  0.1369  0.1396
 4832SOL     OW19099   1.911   2.542   3.319 -0.3660 -0.2425 -0.2861
 4832SOL    HW219100   1.954   2.480   3.378 -0.4844 -0.9598 -0.9414
 4832SOL    HW319101   1.876   2.488   3.249  0.1279  0.6364 -1.2344
 4832SOL    MW419102   1.912   2.527   3.318 -0.2194  0.3706  0.2208
 4833SOL     OW19103   5.284   1.322   1.971  0.5007 -0.0410  0.0636
 4833SOL    HW219104   5.354   1.260   1.949  1.3950  1.0645 -0.3507
 4833SOL    HW319105   5.331   1.399   2.002 -0.5449  0.7511 -0.2832
 4833SOL    MW419106   5.300   1.324   1.972  0.3315 -0.2861  0.4240
 4834SOL     OW19107   2.500   0.313   6.437 -0.1869  0.3002 -0.5234
 4834SOL    HW219108   2.487   0.376   6.366  2.1838 -0.3066 -1.6111
 4834SOL    HW319109   2.412   0.290   6.466 -1.1884  3.9950 -0.1037
 4834SOL    MW419110   2.487   0.319   6.432  0.2643  0.1141  0.1790
 4835SOL     OW19111   3.023   5.032   1.302  0.1137 -0.0195 -0.2581
 4835SOL    HW219112   3.071   5.072   1.230  0.6124  1.9805  1.1095
 4835SOL    HW319113   3.077   4.958   1.329  1.2171  0.7353 -0.3274
 4835SOL    MW419114   3.036   5.028   1.296 -0.0769 -0.6498 -0.3626
 4836SOL     OW19115   4.819   2.883   5.664  0.0919  0.1501 -0.1687
 4836SOL    HW219116   4.787   2.825   5.734  2.1759 -0.0686  0.6651
 4836SOL    HW319117   4.899   2.841   5.633  1.0444  1.9968 -0.3168
 4836SOL    MW419118   4.825   2.870   5.669 -0.1212 -0.3370  0.5043
 4837SOL     OW19119   0.986   0.898   4.865 -0.6769  0.1802  0.3774
 4837SOL    HW219120   0.904   0.860   4.897 -0.1717 -2.3547 -1.0045
 4837SOL    HW319121   0.999   0.857   4.780  1.4275  1.4379  0.0271
 4837SOL    MW419122   0.977   0.887   4.858 -0.0626 -0.0433 -0.1050
 4838SOL     OW19123   5.390   5.469   1.559  0.3325  0.0407 -0.1224
 4838SOL    HW219124   5.439   5.422   1.491  0.0491  0.7633 -0.8483
 4838SOL    HW319125   5.378   5.557   1.523 -1.6826 -0.1559 -0.0731
 4838SOL    MW419126   5.395   5.475   1.545  0.1396  0.4162 -0.0794
 4839SOL     OW19127   6.133   1.073   4.638  0.0931 -0.1814 -0.4901
 4839SOL    HW219128   6.151   1.100   4.729  2.9583 -2.4480 -0.2217
 4839SOL    HW319129   6.049   1.028   4.643  0.1046 -0.1014  1.0427
 4839SOL    MW419130   6.124   1.070   4.651  0.0722  0.3941 -0.4447
 4840SOL     OW19131   3.104   0.728   4.749  0.3633 -0.4613 -0.5762
 4840SOL    HW219132   3.118   0.805   4.694 -0.4202  0.0425 -0.0966
 4840SOL    HW319133   3.163   0.661   4.713 -0.6632 -0.4011 -2.5029
 4840SOL    MW419134   3.114   0.729   4.737  0.2023 -0.3720  0.5219
 4841SOL     OW19135   3.444   1.616   6.256  0.2297 -0.2444  0.0337
 4841SOL    HW219136   3.503   1.575   6.193  1.5724 -0.0290  1.0913
 4841SOL    HW319137   3.361   1.571   6.245  0.1257  0.4462 -2.5559
 4841SOL    MW419138   3.441   1.605   6.247 -0.0498  0.0800 -1.2407
 4842SOL     OW19139   0.673   2.021   4.199  0.1476  0.2535  0.5932
 4842SOL    HW219140   0.640   2.096   4.149  1.0401 -1.2642 -2.5631
 4842SOL    HW319141   0.722   2.059   4.271 -1.2433  2.6355  0.3710
 4842SOL    MW419142   0.675   2.036   4.202 -0.4239 -0.2925 -0.1969
 4843SOL     OW19143   1.163   2.754   0.535 -0.4242  0.7919 -0.4521
 4843SOL    HW219144   1.137   2.662   0.531  0.2295  0.5773  0.0632
 4843SOL    HW319145   1.086   2.800   0.568 -0.3312  0.2428  0.5424
 4843SOL    MW419146   1.150   2.748   0.539 -0.5572  0.3779  0.1344
 4844SOL     OW19147   5.347   0.454   3.821  0.4025 -0.0379  0.1249
 4844SOL    HW219148   5.377   0.541   3.794  0.0894  0.5118  1.4544
 4844SOL    HW319149   5.318   0.413   3.740 -0.2369  1.4150 -0.4199
 4844SOL    MW419150   5.347   0.460   3.807  0.0035 -0.2033 -0.1030
 4845SOL     OW19151   5.117   3.147   3.239  0.1115 -0.8087  0.7202
 4845SOL    HW219152   5.125   3.151   3.144 -1.0833 -1.8758  0.5545
 4845SOL    HW319153   5.027   3.118   3.254  0.4700 -1.2327  2.1658
 4845SOL    MW419154   5.106   3.144   3.228  0.3223 -0.0276 -0.0978
 4846SOL     OW19155   4.176   3.040   2.899  0.3792  0.4254 -0.2810
 4846SOL    HW219156   4.149   2.958   2.858  0.4850  0.0806  0.3398
 4846SOL    HW319157   4.099   3.097   2.892  0.2136  0.1818 -0.4500
 4846SOL    MW419158   4.163   3.037   2.893 -0.7532  0.0757 -0.0091
 4847SOL     OW19159   6.096   5.709   2.925 -0.0164 -0.1532  0.1310
 4847SOL    HW219160   6.023   5.768   2.946 -2.4545 -1.5473 -3.4264
 4847SOL    HW319161   6.077   5.629   2.975 -0.0960 -0.0173  0.3221
 4847SOL    MW419162   6.084   5.706   2.935  0.0820  0.0314 -0.9128
 4848SOL     OW19163   3.563   4.370   1.538 -0.4221  0.3531  0.1984
 4848SOL    HW219164   3.522   4.364   1.625 -0.3953 -0.6348  0.1536
 4848SOL    HW319165   3.654   4.392   1.557 -0.5670  0.7969  0.3885
 4848SOL    MW419166   3.570   4.372   1.552  0.4503  0.1629  0.3594
 4849SOL     OW19167   0.726   1.001   5.643 -0.2205  0.2129  0.1487
 4849SOL    HW219168   0.756   0.922   5.688  0.6035  0.4953  0.1061
 4849SOL    HW319169   0.667   0.969   5.575  1.0598 -0.4828 -0.6690
 4849SOL    MW419170   0.722   0.987   5.640  0.2204 -0.1383  0.2580
 4850SOL     OW19171   3.278   4.449   2.621  0.3833 -0.2827  0.6569
 4850SOL    HW219172   3.260   4.364   2.661 -0.8639  0.2566  1.2923
 4850SOL    HW319173   3.218   4.453   2.546 -0.6495  0.6237  1.4990
 4850SOL    MW419174   3.268   4.438   2.616  0.0562  0.4946 -0.2865
 4851SOL     OW19175   5.352   0.148   5.428  0.4014  0.4747  0.1511
 4851SOL    HW219176   5.400   0.204   5.367 -0.3110  0.9867  0.0497
 4851SOL    HW319177   5.261   0.157   5.402  0.3231 -1.3701 -0.3964
 4851SOL    MW419178   5.347   0.157   5.416  0.2589  0.4141  0.0471
 4852SOL     OW19179   1.940   4.718   0.857 -0.5418  0.1226  0.1737
 4852SOL    HW219180   1.896   4.780   0.800 -0.7809  0.1670  0.4066
 4852SOL    HW319181   2.016   4.766   0.891  0.1043 -0.1864 -0.7929
 4852SOL    MW419182   1.944   4.732   0.854 -0.1290 -0.7180 -0.7232
 4853SOL     OW19183   3.943   5.515   1.145 -0.5511 -0.6221 -0.1641
 4853SOL    HW219184   3.913   5.483   1.230 -1.0994 -0.7182 -0.3863
 4853SOL    HW319185   4.025   5.470   1.130  0.7152  1.0337  1.3127
 4853SOL    MW419186   3.950   5.505   1.154  0.1222  0.4257 -0.0296
 4854SOL     OW19187   5.355   5.138   0.635 -0.1766  0.1425 -0.2405
 4854SOL    HW219188   5.290   5.146   0.704  1.1425 -1.6660  1.3572
 4854SOL    HW319189   5.312   5.087   0.566 -0.4867 -1.1004  0.8297
 4854SOL    MW419190   5.341   5.132   0.635  0.2673 -0.3307 -0.3771
 4855SOL     OW19191   0.293   4.921   4.049 -0.3194  0.9461 -0.2686
 4855SOL    HW219192   0.202   4.920   4.079  0.1630 -0.2700  1.2744
 4855SOL    HW319193   0.342   4.950   4.126  0.9311 -1.8511  0.0806
 4855SOL    MW419194   0.287   4.925   4.063  0.3001  0.5462  0.1776
 4856SOL     OW19195   3.304   3.146   1.084 -0.1495  0.1044  0.0384
 4856SOL    HW219196   3.262   3.136   0.999  0.2483 -1.0335 -0.0414
 4856SOL    HW319197   3.397   3.159   1.064 -0.3599  2.2482  0.2280
 4856SOL    MW419198   3.311   3.146   1.070 -0.2940  0.4038  0.0801
 4857SOL     OW19199   4.123   2.348   2.064 -0.0770  0.1855 -0.1894
 4857SOL    HW219200   4.040   2.329   2.106 -0.5569  0.6422 -0.9137
 4857SOL    HW319201   4.174   2.395   2.130 -0.4025 -0.0854  0.2487
 4857SOL    MW419202   4.119   2.352   2.078 -0.3731 -0.1014 -0.0854
 4858SOL     OW19203   2.880   4.447   2.544  0.3638  0.2595 -1.0097
 4858SOL    HW219204   2.812   4.396   2.500  0.0881  0.7168 -1.1120
 4858SOL    HW319205   2.896   4.400   2.626 -0.7432  0.6738 -0.5517
 4858SOL    MW419206   2.873   4.434   2.549  0.3468  0.4429  0.2672
 4859SOL     OW19207   4.583   5.626   2.394 -0.5847  0.5919 -0.0708
 4859SOL    HW219208   4.638   5.548   2.395 -0.0407  0.9063 -1.8647
 4859SOL    HW319209   4.632   5.691   2.443  1.4320  1.3137 -2.8408
 4859SOL    MW419210   4.597   5.624   2.401  0.2815 -0.2770  0.3119
 4860SOL     OW19211   4.658   2.323   0.725 -0.0792 -0.0966 -0.0794
 4860SOL    HW219212   4.728   2.366   0.675 -0.7071  0.6174 -0.3729
 4860SOL    HW319213   4.578   2.347   0.678 -0.5570 -0.5703  0.4839
 4860SOL    MW419214   4.657   2.332   0.712  0.1599 -0.5720  0.2863
 4861SOL     OW19215   1.686   6.034   1.701  0.0126 -0.0044  0.1553
 4861SOL    HW219216   1.766   6.087   1.700  0.7635 -1.0331  1.6742
 4861SOL    HW319217   1.653   6.039   1.611  2.1739 -0.1277 -0.7105
 4861SOL    MW419218   1.692   6.041   1.689 -0.3781  0.4532 -0.4219
 4862SOL     OW19219   2.267   0.403   5.827 -0.0128  0.0996  0.0359
 4862SOL    HW219220   2.359   0.386   5.846 -0.2844 -0.5041  0.8359
 4862SOL    HW319221   2.269   0.463   5.752  1.0891  2.3808  1.7451
 4862SOL    MW419222   2.280   0.409   5.819  0.0963 -0.2172  0.4039
 4863SOL     OW19223   4.769   5.036   4.573 -0.7537 -0.5097 -0.0848
 4863SOL    HW219224   4.857   5.016   4.606 -1.1014  0.5354  1.5917
 4863SOL    HW319225   4.785   5.083   4.491  0.2459 -0.7282 -0.0334
 4863SOL    MW419226   4.783   5.040   4.567  0.0068  0.5955  0.3143
 4864SOL     OW19227   3.585   1.022   2.639 -0.0818  0.2957 -0.0007
 4864SOL    HW219228   3.568   0.962   2.566 -0.5328  0.2799  0.1132
 4864SOL    HW319229   3.615   1.102   2.596  1.0622 -0.1872 -0.1200
 4864SOL    MW419230   3.586   1.025   2.624  0.3884  0.0362 -0.5845
 4865SOL     OW19231   4.080   3.202   4.494 -0.1011 -0.0921 -0.2110
 4865SOL    HW219232   4.040   3.130   4.542 -0.0555  0.9823  1.5535
 4865SOL    HW319233   4.008   3.243   4.447 -0.0118 -1.6459 -1.7650
 4865SOL    MW419234   4.066   3.198   4.494 -0.3299 -0.2670 -0.0663
 4866SOL     OW19235   3.193   5.571   6.043  0.4192 -0.6658 -0.4477
 4866SOL    HW219236   3.259   5.540   6.105  0.0058  0.1550  0.4232
 4866SOL    HW319237   3.142   5.492   6.021  0.8049 -1.0368 -0.0277
 4866SOL    MW419238   3.195   5.556   6.049 -0.4059  0.4934  0.1981
 4867SOL     OW19239   1.745   2.205   4.661  0.1178  0.2339  0.0915
 4867SOL    HW219240   1.719   2.139   4.724 -0.7403 -0.1202 -0.6160
 4867SOL    HW319241   1.829   2.238   4.694 -0.5239  0.3877  1.6470
 4867SOL    MW419242   1.753   2.201   4.674  0.0210  0.4052  0.2023
 4868SOL     OW19243   2.669   5.046   3.515  0.1385  0.0794  0.0561
 4868SOL    HW219244   2.665   4.959   3.555  2.3356 -0.3739 -0.5895
 4868SOL    HW319245   2.603   5.044   3.446  0.4914 -1.2503 -0.2634
 4868SOL    MW419246   2.660   5.035   3.511 -0.3383 -0.5233 -0.2674
 4869SOL     OW19247   0.092   3.073   6.078 -0.3150 -0.0553  0.2236
 4869SOL    HW219248   0.102   3.120   6.161 -3.3169 -1.1386  1.3331
 4869SOL    HW319249   0.057   2.987   6.103 -0.8978 -0.5723 -2.1413
 4869SOL    MW419250   0.089   3.068   6.092  0.2707  0.0132 -0.1072
 4870SOL     OW19251   0.169   1.221   3.322  0.0080 -0.5694  0.0621
 4870SOL    HW219252   0.131   1.290   3.266 -1.1642 -1.0174  0.2781
 4870SOL    HW319253   0.239   1.266   3.369  0.3079  0.0881 -0.9514
 4870SOL    MW419254   0.173   1.236   3.321  0.1230  0.6208  0.3003
 4871SOL     OW19255   0.752   6.391   3.222  0.1227  0.6141 -0.4770
 4871SOL    HW219256   0.697   6.338   3.281 -1.2097  0.8321 -1.4830
 4871SOL    HW319257   0.822   6.425   3.279  0.3449 -1.2413  0.4427
 4871SOL    MW419258   0.754   6.388   3.237  0.0761 -0.5371 -0.0330
 4872SOL     OW19259   1.714   6.011   3.973  0.2950 -0.2019 -0.5449
 4872SOL    HW219260   1.711   6.004   4.069  1.6578  1.1940 -0.3707
 4872SOL    HW319261   1.722   5.920   3.944  0.8111 -0.5984  0.7239
 4872SOL    MW419262   1.715   5.998   3.982  0.1402  0.1423  0.2682
 4873SOL     OW19263   4.110   4.691   0.549 -0.3761  0.2495  0.0728
 4873SOL    HW219264   4.017   4.710   0.553 -0.4323  0.1059 -0.4800
 4873SOL    HW319265   4.133   4.665   0.638 -0.5265  1.7679  0.5730
 4873SOL    MW419266   4.101   4.690   0.561 -0.3037 -0.8622  0.4092
 4874SOL     OW19267   4.319   4.370   6.166 -0.3269  0.0971 -0.4653
 4874SOL    HW219268   4.328   4.461   6.138 -1.5672 -0.1189 -1.7342
 4874SOL    HW319269   4.228   4.349   6.146 -0.4731 -0.9926  1.1867
 4874SOL    MW419270   4.308   4.379   6.160  0.1321 -0.3747 -0.1733
 4875SOL     OW19271   6.285   3.012   1.138  0.3191 -0.1589 -0.1819
 4875SOL    HW219272   6.225   3.012   1.212  1.2390  1.8131  0.6387
 4875SOL    HW319273   6.308   3.104   1.125 -0.2273 -0.3320 -3.3069
 4875SOL    MW419274   6.280   3.024   1.146  0.2201 -0.2454 -0.1872
 4876SOL     OW19275   3.539   3.732   1.942 -0.7816 -0.1633 -1.0791
 4876SOL    HW219276   3.590   3.792   1.887 -1.6912  0.2619 -1.4833
 4876SOL    HW319277   3.449   3.761   1.930 -0.9820  0.1336  0.9033
 4876SOL    MW419278   3.534   3.744   1.933  0.3803 -0.0130  0.2097
 4877SOL     OW19279   3.552   6.013   4.907  0.2347 -0.5149 -0.1290
 4877SOL    HW219280   3.461   5.997   4.880 -0.1040  0.1360  0.5793
 4877SOL    HW319281   3.584   5.927   4.935  0.8666 -1.3973 -3.2256
 4877SOL    MW419282   3.544   5.999   4.907 -0.1397  0.3418 -0.3907
 4878SOL     OW19283   0.273   0.473   1.749  0.7797 -0.3998 -0.2192
 4878SOL    HW219284   0.367   0.488   1.752  0.6123  0.7752 -0.1460
 4878SOL    HW319285   0.244   0.519   1.669  0.1899 -0.2096  0.0954
 4878SOL    MW419286   0.281   0.481   1.739 -0.0467  0.4363  0.6131
 4879SOL     OW19287   4.731   1.963   0.173  0.3730  0.5934 -0.0187
 4879SOL    HW219288   4.794   2.025   0.211 -1.7366  2.6524  0.3801
 4879SOL    HW319289   4.675   1.939   0.246 -0.0362 -0.2690 -0.6028
 4879SOL    MW419290   4.732   1.968   0.188 -0.7133  0.0337 -0.5487
 4880SOL     OW19291   4.316   4.528   3.703  0.1983 -0.3202 -0.9006
 4880SOL    HW219292   4.345   4.511   3.614 -0.8495 -3.2550 -0.8131
 4880SOL    HW319293   4.396   4.528   3.755  0.5883 -2.2738 -1.4229
 4880SOL    MW419294   4.330   4.526   3.698  0.0610 -0.3864 -0.3522
 4881SOL     OW19295   3.185   6.034   2.041  0.1414  0.7666 -0.2153
 4881SOL    HW219296   3.214   5.992   2.122  2.0012 -1.4133 -1.8796
 4881SOL    HW319297   3.102   5.991   2.019  0.9878 -0.6252 -0.8139
 4881SOL    MW419298   3.178   6.023   2.049  0.4066 -0.8016 -0.0590
 4882SOL     OW19299   5.717   1.264   3.328 -0.1644 -1.2878  0.3322
 4882SOL    HW219300   5.716   1.311   3.411 -0.6046 -1.3403  0.3609
 4882SOL    HW319301   5.737   1.331   3.262 -0.1597 -1.1800  0.4436
 4882SOL    MW419302   5.720   1.279   3.330 -0.3489  0.0831 -0.1269
 4883SOL     OW19303   2.323   2.666   0.564  0.1782  0.0160 -0.5585
 4883SOL    HW219304   2.237   2.628   0.550  0.1208 -0.5300  1.0781
 4883SOL    HW319305   2.319   2.704   0.652  1.5222  0.2085 -0.5531
 4883SOL    MW419306   2.311   2.666   0.573  0.3100 -0.2254 -0.0255
 4884SOL     OW19307   3.132   3.702   4.134  0.0181  0.1897  0.0922
 4884SOL    HW219308   3.060   3.745   4.180  0.5515  0.8596  0.3243
 4884SOL    HW319309   3.199   3.691   4.202 -0.3808 -1.7461  0.2541
 4884SOL    MW419310   3.131   3.706   4.149 -0.2279 -0.0268 -0.2716
 4885SOL     OW19311   0.816   0.833   5.847  0.4488 -0.8776  0.7015
 4885SOL    HW219312   0.750   0.766   5.865  0.1512 -1.0916 -1.0074
 4885SOL    HW319313   0.891   0.785   5.812  0.2723 -0.3547 -0.4410
 4885SOL    MW419314   0.817   0.818   5.845 -0.5790  0.6291 -0.2353
 4886SOL     OW19315   4.416   6.392   3.032 -0.3150 -0.3583  0.1494
 4886SOL    HW219316   4.463   6.475   3.038 -1.1337  0.1912 -0.7631
 4886SOL    HW319317   4.424   6.367   2.940 -1.6596 -0.3181  0.0004
 4886SOL    MW419318   4.423   6.400   3.020  0.2928 -0.4569 -0.5368
 4887SOL     OW19319   5.116   0.704   4.346  0.1488 -0.1662  0.0640
 4887SOL    HW219320   5.093   0.760   4.272 -0.1020 -0.3606 -0.0072
 4887SOL    HW319321   5.048   0.637   4.347  0.4687 -0.4911  0.1257
 4887SOL    MW419322   5.104   0.702   4.337  0.3294  0.1671  0.2106
 4888SOL     OW19323   2.546   2.852   3.403  0.1279  0.2120 -0.1999
 4888SOL    HW219324   2.558   2.765   3.364 -0.6810  0.0464 -0.1025
 4888SOL    HW319325   2.602   2.910   3.351 -0.1208 -0.1910 -0.9326
 4888SOL    MW419326   2.555   2.848   3.391  0.8050 -0.6165  0.2488
 4889SOL     OW19327   1.250   4.422   2.655 -0.1658 -0.5370  0.3478
 4889SOL    HW219328   1.156   4.435   2.640  0.1883  0.8705 -0.9651
 4889SOL    HW319329   1.265   4.330   2.633 -1.0595 -0.4938 -0.5253
 4889SOL    MW419330   1.239   4.411   2.650  1.1455  0.0337  0.0721
 4890SOL     OW19331   3.163  -0.002   1.062  0.1475  0.0217  0.2682
 4890SOL    HW219332   3.204  -0.065   1.121  0.2041 -0.0510  0.1530
 4890SOL    HW319333   3.120   0.061   1.119  1.2309  0.6513  0.4239
 4890SOL    MW419334   3.163  -0.002   1.077 -0.0950 -0.8711 -0.3800
 4891SOL     OW19335   6.304   5.121   1.511 -0.1544  0.2664 -0.0756
 4891SOL    HW219336   6.286   5.215   1.504 -0.0119  0.2597 -0.5328
 4891SOL    HW319337   6.360   5.102   1.436 -1.8895 -0.6078 -1.2251
 4891SOL    MW419338   6.309   5.131   1.500  0.6505 -0.0701  0.1138
 4892SOL     OW19339   2.231   4.707   2.372  0.2588 -0.3529 -0.1596
 4892SOL    HW219340   2.205   4.799   2.360 -3.0021 -0.7187  2.4836
 4892SOL    HW319341   2.298   4.711   2.440  1.6308  0.1354 -1.4929
 4892SOL    MW419342   2.236   4.720   2.380 -0.0820 -0.1655  0.3375
 4893SOL     OW19343   4.559   5.508   6.351  0.3719  0.0699 -0.1165
 4893SOL    HW219344   4.464   5.522   6.350  0.4800  0.9140  0.6901
 4893SOL    HW319345   4.568   5.415   6.370 -0.2941  0.0713  0.2579
 4893SOL    MW419346   4.548   5.497   6.353 -0.3476  0.1805 -0.1434
 4894SOL     OW19347   5.612   6.165   1.531 -0.1556  0.4751  0.2017
 4894SOL    HW219348   5.576   6.190   1.616  1.2070  1.9761  0.4026
 4894SOL    HW319349   5.536   6.137   1.479 -0.9079 -1.2976  2.1434
 4894SOL    MW419350   5.597   6.165   1.535  0.0707  0.0354 -0.2605
 4895SOL     OW19351   0.684   6.198   4.055  0.1890  0.4005 -0.0462
 4895SOL    HW219352   0.729   6.118   4.082 -0.3545  0.3949  0.8818
 4895SOL    HW319353   0.622   6.169   3.988  0.2707  0.1082  0.0044
 4895SOL    MW419354   0.681   6.183   4.049 -0.7479  0.4595 -0.5489
 4896SOL     OW19355   0.382   5.626   0.154  0.0045  0.4058  0.1031
 4896SOL    HW219356   0.361   5.716   0.128 -0.2106  0.4558  0.4413
 4896SOL    HW319357   0.300   5.592   0.188  0.1330  0.1383  0.1452
 4896SOL    MW419358   0.368   5.634   0.155  0.0470  0.7054 -0.2585
 4897SOL     OW19359   0.180   3.067   1.074  0.6071  0.2543  0.3255
 4897SOL    HW219360   0.258   3.123   1.073  1.0800 -0.3693  0.8605
 4897SOL    HW319361   0.208   2.989   1.123 -0.8456  0.7502  2.0308
 4897SOL    MW419362   0.194   3.064   1.080  0.2391  0.4141  0.5496
 4898SOL     OW19363   5.591   3.604   3.101  0.3500  0.0372 -0.0934
 4898SOL    HW219364   5.637   3.656   3.167  0.7254  1.8657 -1.7198
 4898SOL    HW319365   5.599   3.654   3.020  1.0674 -2.7335 -1.8926
 4898SOL    MW419366   5.598   3.618   3.099  0.6955 -0.1634 -0.3554
 4899SOL     OW19367   0.377   5.993   3.361  0.0454  0.2865 -0.4756
 4899SOL    HW219368   0.306   6.057   3.367  0.2944  0.4598  0.8697
 4899SOL    HW319369   0.415   5.991   3.449  0.1988 -1.5246 -0.5467
 4899SOL    MW419370   0.372   6.001   3.374 -0.3579 -0.1350 -0.0123
 4900SOL     OW19371   5.786   3.352   0.161  0.7554  0.4148 -0.1866
 4900SOL    HW219372   5.856   3.348   0.227  0.4451 -0.5504  0.0920
 4900SOL    HW319373   5.740   3.269   0.169 -0.3797  1.0017 -0.4311
 4900SOL    MW419374   5.790   3.341   0.171  0.3735 -0.7635  0.1938
 4901SOL     OW19375   1.959   1.351   3.203  0.1946 -0.0265  0.0549
 4901SOL    HW219376   1.882   1.380   3.154 -0.0384  0.6781  0.8111
 4901SOL    HW319377   1.944   1.257   3.218  0.0415 -0.1405 -0.7916
 4901SOL    MW419378   1.946   1.342   3.199 -0.2312 -0.1620  0.3837
 4902SOL     OW19379   1.082   2.081   0.413  0.1267  0.1609 -0.5345
 4902SOL    HW219380   1.178   2.082   0.406  0.3000  0.8007  1.4729
 4902SOL    HW319381   1.060   1.988   0.412  0.6178  0.0186 -2.2804
 4902SOL    MW419382   1.092   2.069   0.412 -0.3915  0.0387 -0.2907
 4903SOL     OW19383   5.040   2.328   3.707  0.1583  0.1012  0.2377
 4903SOL    HW219384   5.110   2.392   3.692 -1.0215  1.0279 -1.5647
 4903SOL    HW319385   5.057   2.259   3.642 -1.0035  0.7029 -0.7325
 4903SOL    MW419386   5.052   2.327   3.696  0.4501  0.1590 -0.2146
 4904SOL     OW19387   2.656   5.634   1.260  0.2805 -0.3706 -0.0219
 4904SOL    HW219388   2.658   5.627   1.356  0.0973 -0.2472 -0.0096
 4904SOL    HW319389   2.748   5.634   1.235  0.3337 -1.7331  0.0614
 4904SOL    MW419390   2.668   5.633   1.270 -0.1252 -0.1410  0.0373
 4905SOL     OW19391   1.291   1.849   4.408 -0.0417  0.1846  0.1615
 4905SOL    HW219392   1.342   1.929   4.423 -1.8242  1.2601  0.7340
 4905SOL    HW319393   1.238   1.840   4.488 -1.1036 -0.6070 -0.6125
 4905SOL    MW419394   1.291   1.859   4.421 -0.2669  0.0331 -0.8052
 4906SOL     OW19395   2.343   3.493   2.778  0.3582  0.1225  0.3302
 4906SOL    HW219396   2.297   3.506   2.695 -0.5132  0.9992  0.9191
 4906SOL    HW319397   2.415   3.555   2.776  0.5385 -0.0933  0.0921
 4906SOL    MW419398   2.346   3.503   2.767 -0.8783 -0.0742 -0.2691
 4907SOL     OW19399   2.262   1.027   3.247  0.2551  0.0987  0.1851
 4907SOL    HW219400   2.287   1.108   3.203  0.7720 -0.7244 -1.1334
 4907SOL    HW319401   2.203   0.983   3.185  2.0071 -1.6883 -0.3610
 4907SOL    MW419402   2.258   1.032   3.233 -0.0765 -0.3723 -0.1045
 4908SOL     OW19403   0.998   5.727   4.496  0.6102  0.1897  0.4264
 4908SOL    HW219404   0.941   5.712   4.571  0.2986  1.1142  0.3901
 4908SOL    HW319405   0.994   5.822   4.481  0.8074  0.0427 -0.6522
 4908SOL    MW419406   0.990   5.738   4.504 -0.3595 -0.7034 -0.0874
 4909SOL     OW19407   0.635   3.835   5.887 -0.5175  0.1792  0.0583
 4909SOL    HW219408   0.571   3.860   5.954 -1.2553  1.1689 -0.9697
 4909SOL    HW319409   0.629   3.904   5.821  0.1938 -0.7447 -1.0216
 4909SOL    MW419410   0.625   3.847   5.887  0.2079 -0.0570  0.0395
 4910SOL     OW19411   2.460   3.273   6.276  0.1464  0.1517  0.2232
 4910SOL    HW219412   2.425   3.361   6.284 -1.1842 -0.3024 -0.2513
 4910SOL    HW319413   2.525   3.266   6.345  1.1105  1.8722 -0.4385
 4910SOL    MW419414   2.464   3.283   6.286 -0.1101  0.1991  0.2160
 4911SOL     OW19415   5.992   6.262   6.046  0.1933 -0.0981  0.0995
 4911SOL    HW219416   6.037   6.179   6.062 -0.2873 -0.6045 -0.9769
 4911SOL    HW319417   6.055   6.330   6.068  0.3324 -0.7219  1.7533
 4911SOL    MW419418   6.006   6.260   6.051  0.1729 -0.0420  0.6060
 4912SOL     OW19419   0.994   5.617   5.001 -0.5283 -0.1690  0.8854
 4912SOL    HW219420   0.960   5.601   4.913  0.8428 -2.1340  0.6468
 4912SOL    HW319421   0.916   5.630   5.055 -1.4140  0.4582 -0.4903
 4912SOL    MW419422   0.979   5.617   4.996 -0.6028  0.1454  0.3587
 4913SOL     OW19423   1.273   1.671   0.089  0.4293 -0.0426 -0.1319
 4913SOL    HW219424   1.236   1.707   0.170 -2.3833 -1.6474 -0.5790
 4913SOL    HW319425   1.308   1.586   0.115  3.5300  1.1789  0.1471
 4913SOL    MW419426   1.273   1.665   0.103 -0.0387  1.1469 -0.0718
 4914SOL     OW19427   2.698   6.043   5.691  0.4339 -0.4968 -0.3427
 4914SOL    HW219428   2.651   6.095   5.625  1.6023 -0.2879 -1.0278
 4914SOL    HW319429   2.790   6.051   5.667  0.8796 -0.5656  1.2190
 4914SOL    MW419430   2.704   6.051   5.679 -0.5723  0.8463  0.2349
 4915SOL     OW19431   3.812   1.242   1.933 -0.1417  1.1635  0.0842
 4915SOL    HW219432   3.785   1.333   1.942  2.7294  2.1977 -0.6637
 4915SOL    HW319433   3.843   1.235   1.843  1.7810  0.0988  0.7743
 4915SOL    MW419434   3.812   1.253   1.922 -0.1790  0.1411  0.3964
 4916SOL     OW19435   3.009   0.088   3.146 -0.2340  0.3303 -0.0775
 4916SOL    HW219436   3.103   0.096   3.132 -0.1730 -1.7539 -1.2752
 4916SOL    HW319437   2.991  -0.006   3.134 -2.3883  0.6015  0.5983
 4916SOL    MW419438   3.019   0.077   3.143  0.4739  0.0510  0.0019
 4917SOL     OW19439   1.061   2.380   4.912 -0.3461 -0.2239  0.1327
 4917SOL    HW219440   1.027   2.441   4.847 -0.0839  0.6374  0.7885
 4917SOL    HW319441   0.998   2.383   4.984 -1.4769 -2.3447 -0.6750
 4917SOL    MW419442   1.049   2.388   4.913 -0.1128 -0.1159  0.0721
 4918SOL     OW19443   3.065   0.343   0.882  0.2943 -0.2384  0.7220
 4918SOL    HW219444   3.061   0.384   0.795  0.9464  2.2956  1.7917
 4918SOL    HW319445   3.159   0.335   0.900  0.1685 -1.4388  0.9260
 4918SOL    MW419446   3.077   0.348   0.873  0.0049  0.1299  0.4221
 4919SOL     OW19447   3.973   2.923   4.401  0.2594  0.3255  0.1468
 4919SOL    HW219448   4.000   2.983   4.331 -0.8191 -0.6914 -1.2104
 4919SOL    HW319449   4.055   2.891   4.438  0.8565  1.2231 -0.3387
 4919SOL    MW419450   3.987   2.927   4.397  0.0911 -0.5510  0.1798
 4920SOL     OW19451   5.175   3.975   2.205  0.2153 -0.1531  0.8688
 4920SOL    HW219452   5.184   3.886   2.238  1.7813  0.7658  3.1520
 4920SOL    HW319453   5.153   4.028   2.282 -0.1199  1.5127 -0.3095
 4920SOL    MW419454   5.174   3.970   2.219  0.6048  0.1869 -0.2749
 4921SOL     OW19455   5.021   3.885   3.624 -0.0419 -0.6041  0.2476
 4921SOL    HW219456   4.978   3.860   3.706  1.4472  0.2698  1.3402
 4921SOL    HW319457   5.095   3.826   3.615  0.0194 -0.4579 -0.2811
 4921SOL    MW419458   5.025   3.874   3.633 -0.0833 -0.1005  0.0456
 4922SOL     OW19459   5.787   2.081   5.590  0.3926 -0.1135  0.3784
 4922SOL    HW219460   5.864   2.096   5.536 -0.3096 -0.4405 -0.7358
 4922SOL    HW319461   5.764   2.167   5.625  0.4247  0.2375 -0.4468
 4922SOL    MW419462   5.794   2.094   5.588 -0.7066  0.1381 -0.1916
 4923SOL     OW19463   5.894   6.029   0.385 -0.2225  0.1496  0.6594
 4923SOL    HW219464   5.909   6.065   0.298 -1.4379  1.1812  0.8496
 4923SOL    HW319465   5.879   5.936   0.370  1.7122 -0.1024  0.0184
 4923SOL    MW419466   5.894   6.022   0.372  0.0621  0.6216 -0.1603
 4924SOL     OW19467   6.045   1.659   0.053 -0.3820 -0.2735 -0.3629
 4924SOL    HW219468   6.016   1.742   0.092 -0.9465 -0.4956 -0.2931
 4924SOL    HW319469   5.977   1.638  -0.012  0.0903 -0.3574 -0.8331
 4924SOL    MW419470   6.032   1.667   0.050 -0.4012 -0.3299  0.1849
 4925SOL     OW19471   0.767   5.873   4.215  0.2408 -0.8628  0.9404
 4925SOL    HW219472   0.844   5.909   4.172  0.6667 -0.6756  1.8395
 4925SOL    HW319473   0.783   5.778   4.218  0.3565 -0.8423  0.9737
 4925SOL    MW419474   0.779   5.865   4.210 -0.4116 -0.0407  0.2549
 4926SOL     OW19475   1.788   3.993   1.501 -0.1041  0.4121  0.1719
 4926SOL    HW219476   1.882   3.982   1.485  0.0295 -0.1036  1.1970
 4926SOL    HW319477   1.747   3.921   1.453  0.0585  0.4048  0.0422
 4926SOL    MW419478   1.795   3.982   1.493  1.1770 -0.1649  0.0572
 4927SOL     OW19479   0.342   1.419   3.813  0.6248 -0.4425 -0.4174
 4927SOL    HW219480   0.361   1.383   3.899  2.6353 -0.6783 -0.9030
 4927SOL    HW319481   0.282   1.356   3.773 -0.3176 -0.3263  0.7853
 4927SOL    MW419482   0.337   1.406   3.819 -0.1551 -0.2677 -0.0522
 4928SOL     OW19483   0.452   1.843   3.549 -0.0835  0.2361  0.7501
 4928SOL    HW219484   0.462   1.753   3.580  0.6121 -0.7909 -2.1553
 4928SOL    HW319485   0.526   1.889   3.589  0.1694 -0.7111  1.4267
 4928SOL    MW419486   0.463   1.837   3.559 -0.5363 -0.1380  0.2177
 4929SOL     OW19487   3.720   2.251   1.468 -0.1966 -0.8844  0.0128
 4929SOL    HW219488   3.679   2.337   1.472 -0.1207 -0.6337 -2.8097
 4929SOL    HW319489   3.808   2.264   1.502 -0.2389  0.0932 -0.2463
 4929SOL    MW419490   3.726   2.264   1.473  0.1901 -0.1763 -0.1817
 4930SOL     OW19491   2.569   1.342   5.120 -0.3063 -0.5287  0.5564
 4930SOL    HW219492   2.512   1.417   5.110  0.5925  0.3119  1.4887
 4930SOL    HW319493   2.621   1.339   5.039 -0.3363 -0.1285  0.5224
 4930SOL    MW419494   2.569   1.351   5.108 -0.0192 -0.2733 -0.3119
 4931SOL     OW19495   6.016   0.607   0.234 -0.2414 -0.0793  0.5726
 4931SOL    HW219496   5.948   0.671   0.256  0.2310  0.6979 -0.1633
 4931SOL    HW319497   6.073   0.605   0.311 -0.3236  0.3055  0.6448
 4931SOL    MW419498   6.015   0.615   0.247  0.0170 -0.4068 -0.5096
 4932SOL     OW19499   5.326   0.623   1.930  0.4384 -0.2288 -0.1732
 4932SOL    HW219500   5.323   0.712   1.965  2.8825  0.1831 -0.8264
 4932SOL    HW319501   5.303   0.633   1.838  1.1157 -0.1867 -0.3438
 4932SOL    MW419502   5.322   0.636   1.923 -0.9019 -0.0343  0.3433
 4933SOL     OW19503   3.210   4.533   1.738  0.0098  0.0459 -0.1986
 4933SOL    HW219504   3.145   4.468   1.762  1.4341 -1.3661  0.0092
 4933SOL    HW319505   3.203   4.601   1.805 -0.6521 -0.4929  0.2838
 4933SOL    MW419506   3.201   4.534   1.750  0.6668 -0.0336  0.3050
 4934SOL     OW19507   0.119   5.396   3.493 -0.1993  0.1304  0.5593
 4934SOL    HW219508   0.106   5.301   3.491 -1.0173  0.2411  0.3935
 4934SOL    HW319509   0.214   5.407   3.489 -0.1193 -0.6720 -0.0369
 4934SOL    MW419510   0.130   5.385   3.492  0.3994 -0.0637 -0.4224
 4935SOL     OW19511   1.270   0.375   2.637 -0.5270  0.1166 -0.6263
 4935SOL    HW219512   1.340   0.405   2.695 -1.2684  0.6072  0.0384
 4935SOL    HW319513   1.262   0.445   2.571 -0.4777  0.1216 -0.6270
 4935SOL    MW419514   1.278   0.389   2.636 -0.0072  0.4155  0.0167
 4936SOL     OW19515   5.295   2.745   0.784 -0.1621 -0.1613 -0.0249
 4936SOL    HW219516   5.380   2.741   0.740 -0.3488  1.4826 -0.6293
 4936SOL    HW319517   5.232   2.745   0.713 -0.4958  1.9965  0.2046
 4936SOL    MW419518   5.298   2.745   0.769 -0.3610  0.0434 -0.8341
 4937SOL     OW19519   0.430   1.759   3.983  0.3024  0.1954 -0.0064
 4937SOL    HW219520   0.392   1.820   4.047  0.1187  0.2054 -0.1248
 4937SOL    HW319521   0.467   1.815   3.915  0.1739  0.1776 -0.0920
 4937SOL    MW419522   0.430   1.775   3.983  0.6826 -0.2425  0.5517
 4938SOL     OW19523   0.146   2.067   3.088  0.2753  0.2653 -0.5166
 4938SOL    HW219524   0.086   2.106   3.152  0.8184  0.5150 -0.1552
 4938SOL    HW319525   0.163   1.979   3.122 -2.2915 -1.0188 -2.1954
 4938SOL    MW419526   0.140   2.060   3.101  0.1965  0.1853  0.4577
 4939SOL     OW19527   5.237   0.496   4.906 -0.1076 -0.3298  0.3804
 4939SOL    HW219528   5.251   0.402   4.899  0.0288 -0.2379 -0.8317
 4939SOL    HW319529   5.186   0.519   4.828 -3.0860  0.1008  2.2611
 4939SOL    MW419530   5.232   0.487   4.895 -0.5853 -0.1503  0.5935
 4940SOL     OW19531   5.033   4.739   4.803 -0.9476 -0.0612 -0.6689
 4940SOL    HW219532   5.079   4.678   4.861  0.9647  1.5984 -0.2961
 4940SOL    HW319533   4.961   4.773   4.856  0.4828  1.0679  0.6463
 4940SOL    MW419534   5.030   4.735   4.818 -0.0608  0.2685  0.6997
 4941SOL     OW19535   4.842   3.800   5.588  0.0347 -0.6417 -0.2642
 4941SOL    HW219536   4.866   3.857   5.515 -0.6780  1.7207  1.2593
 4941SOL    HW319537   4.923   3.751   5.607  0.9116  0.4247 -1.0987
 4941SOL    MW419538   4.856   3.801   5.581  0.6033  0.5236  0.0647
 4942SOL     OW19539   0.188   0.975   5.068 -0.5273  0.2629  0.0560
 4942SOL    HW219540   0.241   1.045   5.105 -0.5703  0.7251 -0.7317
 4942SOL    HW319541   0.115   1.021   5.025 -0.8678 -0.2956  0.0320
 4942SOL    MW419542   0.185   0.991   5.067 -0.1958  0.7034 -0.3715
 4943SOL     OW19543   1.213   0.892   5.016  0.2313 -0.4067 -0.4300
 4943SOL    HW219544   1.126   0.885   4.976  0.1736 -1.9533 -0.0935
 4943SOL    HW319545   1.253   0.968   4.974 -2.9393  3.4717  2.6282
 4943SOL    MW419546   1.206   0.901   5.005  0.1989 -0.2823 -0.3174
 4944SOL     OW19547   5.605   4.741   0.550  0.2192 -0.3974 -0.0961
 4944SOL    HW219548   5.675   4.752   0.615  1.5137  0.8961 -1.6259
 4944SOL    HW319549   5.619   4.655   0.513 -0.4650 -1.1050  1.2048
 4944SOL    MW419550   5.616   4.731   0.554 -0.1397  0.4001  0.1216
 4945SOL     OW19551   0.388   3.379   2.117 -0.1673 -0.2902 -0.0100
 4945SOL    HW219552   0.425   3.427   2.042  3.1842 -0.0420  1.6097
 4945SOL    HW319553   0.364   3.448   2.179 -0.4804 -0.5666  0.1748
 4945SOL    MW419554   0.390   3.395   2.115 -0.8948 -0.9183 -1.2099
 4946SOL     OW19555   4.057   4.200   0.128  0.5887 -0.0918  0.3149
 4946SOL    HW219556   3.973   4.244   0.137  1.0206  1.0760 -1.0402
 4946SOL    HW319557   4.038   4.123   0.074  0.6209  1.1285 -1.5664
 4946SOL    MW419558   4.043   4.196   0.122  0.0735 -0.3885  0.2927
 4947SOL     OW19559   2.530   3.146   2.730 -0.4177  0.6304  0.7672
 4947SOL    HW219560   2.565   3.058   2.744  2.1827  1.8377  2.7528
 4947SOL    HW319561   2.483   3.167   2.810 -0.6286  1.2085  0.5015
 4947SOL    MW419562   2.529   3.137   2.742 -0.3734 -0.3235  0.1094
 4948SOL     OW19563   1.325   3.053   3.890 -0.0495 -0.2116  0.6192
 4948SOL    HW219564   1.336   3.000   3.811 -0.8980 -1.1664  1.1131
 4948SOL    HW319565   1.378   3.131   3.875  2.3777 -1.7885  0.4065
 4948SOL    MW419566   1.333   3.056   3.878  0.3309 -0.3114 -1.0671
 4949SOL     OW19567   5.858   2.994   1.742 -0.3269  0.4421 -0.4871
 4949SOL    HW219568   5.896   2.912   1.772 -1.3724 -0.3825 -1.3196
 4949SOL    HW319569   5.765   2.987   1.764 -0.0076  2.6529  2.0407
 4949SOL    MW419570   5.851   2.983   1.749 -0.3709  0.3170 -0.3955
 4950SOL     OW19571   5.383   2.895   4.406 -0.3062  0.3093 -0.3350
 4950SOL    HW219572   5.424   2.882   4.320  1.5480  0.4031  0.4789
 4950SOL    HW319573   5.400   2.813   4.453 -3.2959 -0.6571 -0.7433
 4950SOL    MW419574   5.391   2.882   4.400  0.0527 -0.2264  0.3353
 4951SOL     OW19575   0.480   5.924   3.126 -0.0463  0.6872  0.3114
 4951SOL    HW219576   0.503   6.001   3.075  2.9558 -0.1748  0.2118
 4951SOL    HW319577   0.453   5.958   3.211  0.9741  1.8764  0.1766
 4951SOL    MW419578   0.479   5.938   3.130 -0.2453 -0.1393  1.0021
 4952SOL     OW19579   4.256   0.185   2.711 -0.1582 -0.4982 -0.4668
 4952SOL    HW219580   4.271   0.135   2.631  2.5700  0.3160 -0.5495
 4952SOL    HW319581   4.339   0.228   2.730 -1.6167  1.9813  1.0157
 4952SOL    MW419582   4.269   0.184   2.703  0.6508 -0.0961  0.4786
 4953SOL     OW19583   2.468   2.773   5.147  0.2270  0.3388  0.2684
 4953SOL    HW219584   2.543   2.756   5.090 -0.3804 -2.0070  0.0702
 4953SOL    HW319585   2.498   2.748   5.235  0.3721  1.6336  0.6233
 4953SOL    MW419586   2.482   2.768   5.151  0.1857  0.5046  0.6570
 4954SOL     OW19587   0.110   2.388   1.521  0.3888  1.1024  0.0884
 4954SOL    HW219588   0.015   2.396   1.518  0.2844  0.1565  0.6294
 4954SOL    HW319589   0.129   2.301   1.484  0.9760  0.9271  0.7733
 4954SOL    MW419590   0.100   2.377   1.516  0.2534 -0.4123  0.4000
 4955SOL     OW19591   0.004   1.607   4.706 -0.0786  0.5627  0.8579
 4955SOL    HW219592  -0.052   1.658   4.647  2.8801  2.4431 -0.5725
 4955SOL    HW319593  -0.042   1.524   4.717 -2.8113  1.7565 -0.6578
 4955SOL    MW419594  -0.009   1.603   4.700  0.4588 -0.1595  0.2861
 4956SOL     OW19595   4.215   0.795   5.535 -0.0997  0.4102 -0.1341
 4956SOL    HW219596   4.287   0.816   5.475 -0.9516  2.6685 -0.4738
 4956SOL    HW319597   4.240   0.836   5.618 -0.3168 -0.0819  0.1763
 4956SOL    MW419598   4.227   0.803   5.538  0.2335 -0.2546  0.0938
 4957SOL     OW19599   1.240   3.212   5.745  0.8675  0.4101  0.4598
 4957SOL    HW219600   1.156   3.229   5.704  0.2082 -0.0809  1.5614
 4957SOL    HW319601   1.296   3.284   5.715 -0.4234  1.7270  1.0445
 4957SOL    MW419602   1.236   3.224   5.736 -0.1600 -0.3524  0.3240
 4958SOL     OW19603   1.361   0.415   1.220 -0.5483 -0.2117 -0.1037
 4958SOL    HW219604   1.380   0.407   1.314  0.2729  0.4173 -0.1995
 4958SOL    HW319605   1.343   0.326   1.191  0.3586 -0.5830  0.4240
 4958SOL    MW419606   1.361   0.402   1.229  0.0852  0.1529 -0.1947
 4959SOL     OW19607   5.708   5.588   0.751 -0.0024 -0.3681  0.0334
 4959SOL    HW219608   5.614   5.607   0.753  0.3793  1.8843 -0.6128
 4959SOL    HW319609   5.740   5.620   0.836  0.3363 -0.1518 -0.1770
 4959SOL    MW419610   5.700   5.594   0.763 -0.4059 -0.3915  0.5066
 4960SOL     OW19611   6.170   0.208   1.277 -0.9671 -0.5647 -0.1682
 4960SOL    HW219612   6.132   0.184   1.193 -0.3014  0.7661 -0.8779
 4960SOL    HW319613   6.094   0.215   1.336 -1.4330 -1.4992 -0.6308
 4960SOL    MW419614   6.155   0.206   1.274 -0.5475 -0.1830 -0.1774
 4961SOL     OW19615   5.204   0.194   5.832  0.2310  0.8264  0.1917
 4961SOL    HW219616   5.159   0.227   5.910  0.9854 -0.3147  1.1642
 4961SOL    HW319617   5.152   0.226   5.758 -0.8447  1.4551  1.1870
 4961SOL    MW419618   5.191   0.202   5.833  0.1012 -0.5054 -0.2235
 4962SOL     OW19619   1.088   1.459   4.900 -0.1798  0.0100  0.5329
 4962SOL    HW219620   1.083   1.468   4.995  0.5895 -0.1394  0.5974
 4962SOL    HW319621   1.016   1.400   4.877  0.7248 -1.4336  1.2455
 4962SOL    MW419622   1.078   1.452   4.909  0.0005  0.1461 -0.6052
 4963SOL     OW19623   0.867   4.821   6.230  0.6284  0.3444 -0.2698
 4963SOL    HW219624   0.807   4.773   6.287  1.1038 -1.1095 -0.9546
 4963SOL    HW319625   0.811   4.886   6.186 -0.7382 -1.6773 -1.7001
 4963SOL    MW419626   0.851   4.823   6.231 -0.1500  0.1958  0.4672
 4964SOL     OW19627   6.373   4.444   4.228 -0.0852 -0.3823 -0.4935
 4964SOL    HW219628   6.332   4.483   4.151  0.8790 -0.2788 -0.9702
 4964SOL    HW319629   6.397   4.356   4.199  1.6310  0.1483 -0.8319
 4964SOL    MW419630   6.371   4.437   4.214  0.7195 -0.2241 -0.4045
 4965SOL     OW19631   0.838   0.998   3.371  0.3348 -0.2869  0.2156
 4965SOL    HW219632   0.763   1.055   3.348  0.1904 -0.5577  0.0084
 4965SOL    HW319633   0.915   1.052   3.351  0.1981  0.2279  1.0223
 4965SOL    MW419634   0.838   1.013   3.365 -0.2687 -0.2738 -0.0130
 4966SOL     OW19635   3.784   3.869   2.892 -0.6837  0.2330  0.4006
 4966SOL    HW219636   3.792   3.801   2.958 -1.9236 -0.8847 -0.5516
 4966SOL    HW319637   3.693   3.899   2.899 -0.6735  0.4781 -0.4254
 4966SOL    MW419638   3.773   3.864   2.902 -0.5335  0.2151 -0.2057
 4967SOL     OW19639   2.488   5.816   2.088 -0.0753 -0.1435  0.8094
 4967SOL    HW219640   2.547   5.890   2.105  0.8918 -0.8450  0.6101
 4967SOL    HW319641   2.413   5.856   2.044  0.7283  0.6472  0.0880
 4967SOL    MW419642   2.486   5.831   2.084 -0.0431  1.0527  0.0077
 4968SOL     OW19643   0.795   1.196   0.356  0.0588 -0.2039  0.4938
 4968SOL    HW219644   0.787   1.216   0.263 -0.3930 -0.4804  0.4710
 4968SOL    HW319645   0.865   1.253   0.387 -0.0290  0.1436  0.0589
 4968SOL    MW419646   0.803   1.206   0.348 -0.1860 -0.2107 -0.2694
 4969SOL     OW19647   3.322   3.578   0.559 -0.4371  0.0470 -0.0942
 4969SOL    HW219648   3.270   3.631   0.618 -0.2732  0.6125 -0.4444
 4969SOL    HW319649   3.308   3.617   0.473  1.0641  0.6345 -0.1091
 4969SOL    MW419650   3.313   3.590   0.555  0.0656  0.4086 -0.1476
 4970SOL     OW19651   6.149   0.966   3.990  0.5515 -0.3147  0.8305
 4970SOL    HW219652   6.134   0.882   3.946 -0.8582  0.1510  0.3482
 4970SOL    HW319653   6.185   0.942   4.076  0.0582 -1.4198  0.7492
 4970SOL    MW419654   6.152   0.952   3.996 -0.2040 -0.1561 -0.8021
 4971SOL     OW19655   6.358   6.022   1.254  0.2218  0.0935  0.7077
 4971SOL    HW219656   6.414   5.995   1.181  0.0482  0.6551  0.3583
 4971SOL    HW319657   6.417   6.067   1.314  0.0593  1.2174  0.0557
 4971SOL    MW419658   6.373   6.025   1.252  0.3959  0.1591  0.0607
 4972SOL     OW19659   4.878   2.616   4.122  0.1602  0.2932  0.0420
 4972SOL    HW219660   4.851   2.532   4.084 -0.6528 -0.4699  2.1287
 4972SOL    HW319661   4.944   2.592   4.186  0.9551  1.4411 -0.3290
 4972SOL    MW419662   4.883   2.602   4.125 -0.0542 -0.2919 -0.3683
 4973SOL     OW19663   1.557   2.195   5.278 -0.0003 -0.1025 -0.0357
 4973SOL    HW219664   1.480   2.138   5.270  1.1135 -1.5282 -1.4874
 4973SOL    HW319665   1.533   2.275   5.230 -0.3386 -0.8503 -1.1636
 4973SOL    MW419666   1.544   2.198   5.270 -0.2352 -0.3209  0.2036
 4974SOL     OW19667   6.415   5.367   0.489 -0.1821  0.0889 -0.1686
 4974SOL    HW219668   6.510   5.364   0.474  0.1554 -0.3350  1.8151
 4974SOL    HW319669   6.387   5.276   0.478  0.0953 -0.2573  1.6782
 4974SOL    MW419670   6.424   5.354   0.485  0.0845  0.7146 -0.2969
 4975SOL     OW19671   2.533   2.672   2.447  0.3768  0.6520 -0.4992
 4975SOL    HW219672   2.567   2.620   2.375  0.8878  0.9514 -0.4782
 4975SOL    HW319673   2.504   2.608   2.512  1.7636  0.3995 -0.1148
 4975SOL    MW419674   2.533   2.657   2.446  0.4519  0.8431  0.6533
 4976SOL     OW19675   6.090   3.047   1.346 -0.1512  0.0655  0.4533
 4976SOL    HW219676   6.084   3.109   1.419  0.4435  0.4685  0.1679
 4976SOL    HW319677   6.006   3.054   1.302 -0.1250  0.6037  0.4818
 4976SOL    MW419678   6.078   3.057   1.350 -0.2383  0.0376  0.2695
 4977SOL     OW19679   3.924   4.899   5.659 -0.0522  0.3331  0.2212
 4977SOL    HW219680   3.936   4.911   5.564  1.4847 -1.3253  0.1514
 4977SOL    HW319681   3.830   4.885   5.669  0.0403 -2.5822 -1.5520
 4977SOL    MW419682   3.913   4.898   5.648  0.4263 -0.1218  0.3033
 4978SOL     OW19683   5.336   3.170   4.420  0.2811 -0.0079  0.2281
 4978SOL    HW219684   5.386   3.196   4.342 -3.1222  0.3103 -2.0557
 4978SOL    HW319685   5.341   3.074   4.420 -1.3464 -0.1519 -1.7021
 4978SOL    MW419686   5.343   3.160   4.410  0.2791  0.4191 -0.0688
 4979SOL     OW19687   1.847   2.450   1.957 -0.2938  0.6311 -0.3619
 4979SOL    HW219688   1.938   2.441   1.987 -0.7900  0.1597  1.1144
 4979SOL    HW319689   1.851   2.430   1.864  1.2402  1.4533 -0.5125
 4979SOL    MW419690   1.860   2.446   1.949 -0.4142 -0.1077  0.2071
 4980SOL     OW19691   5.204   5.639   4.853  0.2799  0.0184 -0.5500
 4980SOL    HW219692   5.200   5.578   4.927 -0.9112  0.9889  0.2190
 4980SOL    HW319693   5.113   5.663   4.837  0.6097  0.5363 -1.7473
 4980SOL    MW419694   5.192   5.634   4.861  1.2817 -0.2385 -0.2828
 4981SOL     OW19695   1.006   6.151   0.154  0.2487  0.0393  0.4633
 4981SOL    HW219696   0.990   6.060   0.129 -0.5430 -0.1490  1.5483
 4981SOL    HW319697   1.086   6.147   0.206  0.6177  0.0774 -0.0990
 4981SOL    MW419698   1.014   6.138   0.158  0.1655 -0.4835 -0.5306
 4982SOL     OW19699   4.434   0.507   5.729 -0.0959  0.7302 -0.0119
 4982SOL    HW219700   4.416   0.417   5.758 -1.2718  0.3116 -1.8764
 4982SOL    HW319701   4.530   0.512   5.725 -0.0064 -0.3136  0.4928
 4982SOL    MW419702   4.444   0.495   5.732  0.3599  0.0104 -0.0562
 4983SOL     OW19703   5.203   3.275   5.938  0.1710  0.3371 -0.3857
 4983SOL    HW219704   5.290   3.314   5.948  0.4170  0.2099 -1.8936
 4983SOL    HW319705   5.219   3.181   5.934 -0.2074  0.1941  0.9116
 4983SOL    MW419706   5.216   3.268   5.939 -0.5613 -0.0657 -0.1708
 4984SOL     OW19707   2.758   3.273   1.231  0.5206 -0.2009  0.2239
 4984SOL    HW219708   2.704   3.281   1.153  1.4834 -0.2154 -0.4594
 4984SOL    HW319709   2.695   3.273   1.304 -0.2896  1.6522 -0.4219
 4984SOL    MW419710   2.743   3.274   1.231  0.2143  0.1801  0.5685
 4985SOL     OW19711   1.487   4.848   5.256  0.1073  0.0008  0.0585
 4985SOL    HW219712   1.439   4.775   5.294  0.6139 -0.2619  0.1982
 4985SOL    HW319713   1.513   4.902   5.331  0.7385 -0.2924  0.0510
 4985SOL    MW419714   1.484   4.846   5.271 -0.4473 -0.1967  0.0038
 4986SOL     OW19715   5.398   3.945   5.697  0.1619  0.2394  0.1239
 4986SOL    HW219716   5.349   3.901   5.767  1.2542  2.7944  2.7355
 4986SOL    HW319717   5.415   3.877   5.633 -1.9290 -2.0303  1.7973
 4986SOL    MW419718   5.394   3.930   5.698 -0.5222 -0.6794 -0.4643
 4987SOL     OW19719   1.960   5.671   5.599 -0.0541  0.6872 -0.0276
 4987SOL    HW219720   1.950   5.578   5.579 -0.4762  0.4081  1.3646
 4987SOL    HW319721   2.040   5.676   5.652 -0.0029  1.1268 -0.1411
 4987SOL    MW419722   1.970   5.659   5.604  0.2305 -0.1745  0.3256
 4988SOL     OW19723   4.540   1.446   1.416  0.4512  0.1799 -0.3627
 4988SOL    HW219724   4.603   1.507   1.377 -1.5102  1.1595 -2.2470
 4988SOL    HW319725   4.477   1.429   1.345 -2.3772  0.6465  1.8605
 4988SOL    MW419726   4.540   1.451   1.401 -0.0045 -0.3018  0.1066
 4989SOL     OW19727   3.288   2.701   4.962 -0.3062 -0.5245 -0.0052
 4989SOL    HW219728   3.210   2.649   4.978  0.0644 -0.3666  2.6663
 4989SOL    HW319729   3.257   2.774   4.907 -1.9442 -0.6700  0.6787
 4989SOL    MW419730   3.274   2.704   4.957 -0.6393 -0.0171 -1.0829
 4990SOL     OW19731   5.880   1.735   2.663  0.1103  0.1271 -0.3964
 4990SOL    HW219732   5.841   1.686   2.590  0.0349  0.3979 -0.5381
 4990SOL    HW319733   5.813   1.798   2.689  0.6964  1.0821 -1.1062
 4990SOL    MW419734   5.866   1.737   2.657 -0.1480  0.2651  0.5455
 4991SOL     OW19735   0.131   3.099   3.403  0.1923  0.5319 -0.0466
 4991SOL    HW219736   0.175   3.184   3.396  0.1016  0.7678  1.7842
 4991SOL    HW319737   0.115   3.089   3.496 -0.8732 -0.9736 -0.3741
 4991SOL    MW419738   0.135   3.109   3.414 -0.1853 -0.0573  0.0869
 4992SOL     OW19739   3.261   4.014   2.406  0.1787  0.0322 -0.3681
 4992SOL    HW219740   3.209   3.986   2.330  1.6438 -0.6715 -1.1471
 4992SOL    HW319741   3.331   4.067   2.369 -0.0913  1.1636  0.6895
 4992SOL    MW419742   3.263   4.017   2.391 -0.1937 -0.4875  0.3210
 4993SOL     OW19743   1.744   1.226   4.602 -0.2018  0.3410  0.2169
 4993SOL    HW219744   1.741   1.239   4.697  1.9237 -0.6385  0.4860
 4993SOL    HW319745   1.747   1.314   4.565 -3.3064  0.8293  0.8455
 4993SOL    MW419746   1.744   1.239   4.610 -0.2329  0.1790 -0.4624
 4994SOL     OW19747   6.122   1.788   4.312 -0.9120  0.0893 -0.1990
 4994SOL    HW219748   6.111   1.767   4.405 -1.6503 -1.6347 -0.6379
 4994SOL    HW319749   6.214   1.771   4.294 -0.6317  0.9632  0.3068
 4994SOL    MW419750   6.133   1.783   4.322 -0.2787  0.1414  0.5675
 4995SOL     OW19751   3.322  -0.001   4.312  0.0012 -0.1011  0.0321
 4995SOL    HW219752   3.408   0.042   4.309 -0.7093  1.4265  0.4129
 4995SOL    HW319753   3.263   0.067   4.347 -0.8184 -2.0152  2.6568
 4995SOL    MW419754   3.326   0.014   4.316  0.6184 -0.0219  0.2608
 4996SOL     OW19755   1.369   1.683   1.634  0.0821  0.3757 -0.2882
 4996SOL    HW219756   1.462   1.693   1.613  0.0243 -0.0419 -0.7557
 4996SOL    HW319757   1.339   1.613   1.577 -0.5248  0.5091 -0.1378
 4996SOL    MW419758   1.377   1.675   1.624 -0.6200  0.1909  0.4254
 4997SOL     OW19759   0.877   5.286   1.295 -0.1029 -0.1856 -0.4497
 4997SOL    HW219760   0.906   5.217   1.235  0.9858 -0.8640  0.8108
 4997SOL    HW319761   0.904   5.257   1.381 -1.1345  1.0414  0.3363
 4997SOL    MW419762   0.884   5.273   1.298  0.2754 -0.4382  0.1779
 4998SOL     OW19763   5.475   5.043   4.588  0.1137  0.2540  0.1447
 4998SOL    HW219764   5.500   5.117   4.533  1.2824 -0.9301 -0.9788
 4998SOL    HW319765   5.557   4.999   4.607 -0.6489 -1.2888 -0.0169
 4998SOL    MW419766   5.489   5.047   4.583  0.1778 -0.1174  0.2397
 4999SOL     OW19767   3.258   1.903   4.676 -0.2628  0.6202  0.5219
 4999SOL    HW219768   3.221   1.991   4.666 -0.0878  0.9244  2.1377
 4999SOL    HW319769   3.190   1.844   4.645 -0.0151  1.3360 -1.5140
 4999SOL    MW419770   3.244   1.907   4.671  0.4271  0.6068 -0.2411
 5000SOL     OW19771   2.456   4.063   5.612 -0.4989 -0.2805  0.0893
 5000SOL    HW219772   2.495   3.980   5.584  0.7396 -0.3412  1.8453
 5000SOL    HW319773   2.374   4.069   5.563  0.3583 -1.5375 -1.5961
 5000SOL    MW419774   2.451   4.053   5.602  0.2569 -0.4101 -0.1797
 5001SOL     OW19775   1.996   0.808   1.787 -0.0904 -0.9822  0.1665
 5001SOL    HW219776   1.905   0.838   1.785  0.8476  2.2916 -1.9133
 5001SOL    HW319777   2.043   0.876   1.834  1.4143 -2.3041  0.6547
 5001SOL    MW419778   1.990   0.821   1.793  0.0983  0.0244  0.2781
 5002SOL     OW19779   2.682   6.400   3.194  0.1665  0.1820 -0.6698
 5002SOL    HW219780   2.708   6.492   3.201  0.1640  0.2978 -1.8661
 5002SOL    HW319781   2.619   6.399   3.122 -1.5633 -0.4179  0.7826
 5002SOL    MW419782   2.677   6.412   3.185 -0.0231  0.3450  0.1035
 5003SOL     OW19783   2.607   0.916   5.138  0.2730  0.1699  0.3390
 5003SOL    HW219784   2.688   0.909   5.189  0.0268  1.1333  0.8790
 5003SOL    HW319785   2.549   0.971   5.191  0.2636  1.8519 -1.3019
 5003SOL    MW419786   2.610   0.922   5.152 -0.3030 -0.1529 -0.2437
 5004SOL     OW19787   1.374   6.309   2.310  0.1389  0.5090 -0.1881
 5004SOL    HW219788   1.464   6.311   2.345  0.6142 -0.3939 -1.3027
 5004SOL    HW319789   1.322   6.273   2.382  1.0316 -0.9505 -0.2425
 5004SOL    MW419790   1.379   6.305   2.324 -0.7131  0.4040 -0.0396
 5005SOL     OW19791   2.772   4.237   1.776  0.3698  0.0273 -0.3571
 5005SOL    HW219792   2.715   4.263   1.849  1.3838  1.9096 -0.1841
 5005SOL    HW319793   2.713   4.232   1.701  0.0930  3.4899 -0.5293
 5005SOL    MW419794   2.757   4.240   1.776 -0.0823  0.1537  0.1215
 5006SOL     OW19795   1.751   0.075   2.562  0.1755 -0.6112  0.3046
 5006SOL    HW219796   1.831   0.089   2.612 -1.3131  0.1136  2.6123
 5006SOL    HW319797   1.733   0.160   2.522  0.8683 -0.9522 -0.7902
 5006SOL    MW419798   1.760   0.088   2.563  0.8570  0.1117  0.1032
 5007SOL     OW19799   3.709   1.016   1.610 -0.0124 -0.1316  0.4783
 5007SOL    HW219800   3.670   0.929   1.597  0.0959  0.0146 -0.9849
 5007SOL    HW319801   3.636   1.070   1.640 -1.0706  0.1557 -2.3018
 5007SOL    MW419802   3.694   1.011   1.612 -0.7256  0.5012  0.3243
 5008SOL     OW19803   5.018   1.233   5.729 -0.0192  0.1221  0.3672
 5008SOL    HW219804   5.101   1.189   5.711 -0.2246  0.1052 -0.5760
 5008SOL    HW319805   5.013   1.235   5.824  0.6386 -0.6764  0.4315
 5008SOL    MW419806   5.029   1.228   5.739 -0.2483 -0.1960 -0.4172
 5009SOL     OW19807   6.329   4.549   3.645  0.4840 -0.0963 -0.0040
 5009SOL    HW219808   6.258   4.599   3.686 -0.2387 -1.0134 -0.1090
 5009SOL    HW319809   6.404   4.562   3.703  0.5022  1.6100 -0.3566
 5009SOL    MW419810   6.329   4.558   3.658  0.1285  0.4784  0.4538
 5010SOL     OW19811   0.486   5.992   2.240 -0.1858 -0.4368 -0.0663
 5010SOL    HW219812   0.564   6.033   2.278 -1.1095 -1.1369  2.8996
 5010SOL    HW319813   0.430   6.065   2.217  0.2490  0.0416  0.3524
 5010SOL    MW419814   0.489   6.007   2.242 -0.2440  0.1572 -0.3747
 5011SOL     OW19815   5.825   2.305   1.913  0.8554  0.0355 -0.3612
 5011SOL    HW219816   5.860   2.373   1.970 -0.9253 -0.1849  1.0770
 5011SOL    HW319817   5.873   2.226   1.938  1.4937  0.3297 -0.6162
 5011SOL    MW419818   5.836   2.303   1.923  0.1421 -0.1616 -0.6407
 5012SOL     OW19819   6.279   1.638   0.231 -0.1064 -0.4879  0.4991
 5012SOL    HW219820   6.203   1.640   0.173 -1.0874 -1.1260  1.7158
 5012SOL    HW319821   6.242   1.638   0.320  1.3094 -0.9729  1.1274
 5012SOL    MW419822   6.264   1.639   0.235 -0.1119 -0.1248 -0.5524
 5013SOL     OW19823   5.264   4.027   0.826 -0.0774  0.2674 -0.2560
 5013SOL    HW219824   5.225   3.957   0.774 -1.9449  1.7908 -1.0451
 5013SOL    HW319825   5.319   4.074   0.763 -1.5894  1.5363 -0.7189
 5013SOL    MW419826   5.266   4.024   0.811 -0.4633  0.4386 -0.0444
 5014SOL     OW19827   3.510   6.253   3.957 -0.3461  0.4569 -0.4222
 5014SOL    HW219828   3.451   6.320   3.992 -2.1364 -0.2909 -1.8596
 5014SOL    HW319829   3.489   6.174   4.005  1.6420  0.7856  1.1452
 5014SOL    MW419830   3.500   6.251   3.968  0.4037 -0.6804  0.3529
 5015SOL     OW19831   6.330   4.401   5.121  0.0412  0.0482 -0.2030
 5015SOL    HW219832   6.289   4.314   5.120  0.4617 -0.2210  1.7757
 5015SOL    HW319833   6.325   4.429   5.212  2.3395  0.9213 -0.2736
 5015SOL    MW419834   6.324   4.393   5.133  0.0958 -0.1166  0.5914
 5016SOL     OW19835   4.052   3.525   4.854  0.1920 -0.2207 -0.3131
 5016SOL    HW219836   4.059   3.495   4.764 -1.5053  0.4014 -0.7017
 5016SOL    HW319837   4.134   3.569   4.872  0.1649  0.5338 -1.9061
 5016SOL    MW419838   4.064   3.527   4.845  0.7192  0.2482  0.1492
 5017SOL     OW19839   2.966   5.686   5.375  0.0491 -0.5510  0.8174
 5017SOL    HW219840   2.928   5.714   5.459 -1.0957  0.4261  0.0100
 5017SOL    HW319841   2.899   5.630   5.336  0.0401  0.0095  0.0156
 5017SOL    MW419842   2.952   5.682   5.381 -0.3975  0.6344  0.3113
 5018SOL     OW19843   5.299   2.198   4.922  0.2558  0.1077  0.1102
 5018SOL    HW219844   5.357   2.257   4.969  0.4967 -0.3005  0.3261
 5018SOL    HW319845   5.238   2.166   4.988  0.7145 -0.6158  0.1910
 5018SOL    MW419846   5.298   2.201   4.937  0.1441 -0.2105 -0.0828
 5019SOL     OW19847   2.933   2.729   4.602  0.3035  0.0883  0.2224
 5019SOL    HW219848   3.012   2.723   4.655  0.1380 -0.1171  0.4487
 5019SOL    HW319849   2.912   2.639   4.578 -1.1035 -0.1156  2.0179
 5019SOL    MW419850   2.941   2.717   4.605 -0.1120 -0.1290 -0.4336
 5020SOL     OW19851   5.723   2.798   3.738 -0.6053 -0.1443 -0.2822
 5020SOL    HW219852   5.691   2.724   3.685 -0.9250  0.0318 -0.3380
 5020SOL    HW319853   5.647   2.823   3.792  0.3629 -1.9198  2.1071
 5020SOL    MW419854   5.709   2.791   3.738 -0.2492 -0.0205  0.1924
 5021SOL     OW19855   3.630   4.775   6.142  0.1120  0.3047  0.0959
 5021SOL    HW219856   3.639   4.844   6.207  2.0835 -1.0925  1.4042
 5021SOL    HW319857   3.577   4.708   6.185  0.8715 -0.3433  0.0493
 5021SOL    MW419858   3.624   4.775   6.156  0.1499  0.5973  0.2469
 5022SOL     OW19859   3.112   0.110   4.704  0.5429  0.0892  0.5310
 5022SOL    HW219860   3.161   0.162   4.768  2.3593 -0.2380 -0.5220
 5022SOL    HW319861   3.096   0.027   4.748  2.4836 -0.4309  0.3356
 5022SOL    MW419862   3.117   0.106   4.718  0.2938 -0.6178 -0.3867
 5023SOL     OW19863   5.850   5.259   3.382 -0.4502  0.2151  0.0595
 5023SOL    HW219864   5.861   5.351   3.357 -1.3524  0.5582  0.8497
 5023SOL    HW319865   5.858   5.259   3.478  0.7799 -0.7242 -0.0291
 5023SOL    MW419866   5.852   5.271   3.392  0.2645 -0.0197 -0.5351
 5024SOL     OW19867   2.697   3.048   4.955 -0.3808  0.0753  0.2172
 5024SOL    HW219868   2.695   3.138   4.922  0.1144 -0.1693 -0.5120
 5024SOL    HW319869   2.675   2.994   4.879  1.3700 -0.5330  0.1006
 5024SOL    MW419870   2.694   3.052   4.941 -0.1403  0.1061 -0.4850
 5025SOL     OW19871   0.958   5.199   1.549  0.2374  0.1683  0.5389
 5025SOL    HW219872   0.992   5.121   1.505  1.8766  1.6995 -1.0918
 5025SOL    HW319873   0.932   5.169   1.636  1.5608 -2.0185  0.2378
 5025SOL    MW419874   0.959   5.185   1.554  0.3968  0.1652 -0.4142
 5026SOL     OW19875   1.977   3.461   1.778 -0.0695 -0.7360 -0.4813
 5026SOL    HW219876   2.019   3.481   1.694  0.9130  1.0502  0.3622
 5026SOL    HW319877   1.887   3.494   1.768  0.4536  0.8156 -0.4021
 5026SOL    MW419878   1.971   3.468   1.766 -0.1685  0.0770 -0.1783
 5027SOL     OW19879   3.009   0.774   3.447 -0.3156  0.3902 -0.0945
 5027SOL    HW219880   2.995   0.779   3.352  2.1711 -1.1908 -0.6302
 5027SOL    HW319881   2.947   0.707   3.476 -2.8036  2.4981 -0.0745
 5027SOL    MW419882   2.999   0.766   3.438 -0.3441  0.0222  0.4808
 5028SOL     OW19883   4.903   2.538   0.648  0.1019  0.3235 -0.0544
 5028SOL    HW219884   4.913   2.513   0.556  1.5371  0.9288 -0.0874
 5028SOL    HW319885   4.985   2.512   0.689 -0.6988 -0.3524  1.1789
 5028SOL    MW419886   4.915   2.531   0.641  0.4634  0.0605 -0.4807
 5029SOL     OW19887   0.060   3.554   2.256  0.4779 -0.0861 -0.3327
 5029SOL    HW219888   0.053   3.468   2.215 -0.3123 -1.6429  2.7561
 5029SOL    HW319889   0.153   3.562   2.279  0.2833 -0.8759  0.7907
 5029SOL    MW419890   0.072   3.544   2.254  0.5082  0.1782  0.5750
 5030SOL     OW19891   6.215   1.980   2.807 -0.2080 -0.2714 -0.4557
 5030SOL    HW219892   6.166   1.988   2.725  0.5391  0.3987 -0.8520
 5030SOL    HW319893   6.262   1.897   2.799 -2.4997 -1.7531  0.6263
 5030SOL    MW419894   6.215   1.970   2.795 -0.3978 -1.0825 -0.3269
 5031SOL     OW19895   0.579   2.550   1.978  0.3119 -0.4536 -0.0872
 5031SOL    HW219896   0.621   2.470   1.946 -0.0908 -0.9232  0.5398
 5031SOL    HW319897   0.627   2.572   2.058  1.3293  0.7293 -0.9841
 5031SOL    MW419898   0.591   2.542   1.984 -0.0459 -0.0267 -0.0567
 5032SOL     OW19899   3.756   5.323   2.111  0.4477  0.0520  0.0411
 5032SOL    HW219900   3.842   5.364   2.107 -0.1473  1.2881 -0.5198
 5032SOL    HW319901   3.695   5.394   2.095 -0.6361 -1.0469 -0.8531
 5032SOL    MW419902   3.759   5.338   2.109  0.5843 -0.6743  0.6905
 5033SOL     OW19903   2.506   3.265   4.385 -0.1470  0.0182 -0.9777
 5033SOL    HW219904   2.496   3.196   4.451 -0.1968  0.2323 -0.7583
 5033SOL    HW319905   2.429   3.256   4.330 -0.8168  0.7105 -0.1821
 5033SOL    MW419906   2.494   3.255   4.387 -0.2073  0.2963 -0.7719
 5034SOL     OW19907   5.677   5.376   4.708  0.3729  1.0074  0.7238
 5034SOL    HW219908   5.693   5.319   4.632  1.1505 -0.3620  1.8670
 5034SOL    HW319909   5.607   5.434   4.680  0.6107  0.4987 -1.0273
 5034SOL    MW419910   5.670   5.376   4.694 -0.3852 -0.0330  0.1110
 5035SOL     OW19911   1.443   4.349   0.183 -0.2132  0.5872  0.2140
 5035SOL    HW219912   1.433   4.403   0.104  1.4314  1.1111  0.3125
 5035SOL    HW319913   1.520   4.295   0.165  0.2258  0.7646  1.4759
 5035SOL    MW419914   1.452   4.349   0.170 -0.6247  0.1110  0.4349
 5036SOL     OW19915   4.223   5.584   5.773  0.1662  0.0195  0.1344
 5036SOL    HW219916   4.234   5.675   5.747  1.3464  0.8884  3.2212
 5036SOL    HW319917   4.138   5.581   5.816  0.5926 -0.0345  1.0032
 5036SOL    MW419918   4.213   5.596   5.775  0.3020 -0.0255  0.6098
 5037SOL     OW19919   1.646   5.595   5.170 -0.2164 -0.3304 -0.7577
 5037SOL    HW219920   1.610   5.682   5.188 -0.5677 -0.5768 -0.2520
 5037SOL    HW319921   1.594   5.563   5.096  0.0560 -0.0250 -1.0817
 5037SOL    MW419922   1.634   5.602   5.162 -0.1748  0.8356 -0.1997
 5038SOL     OW19923   0.579   1.454   1.459  0.5590 -0.0713  0.5837
 5038SOL    HW219924   0.600   1.544   1.435  0.2695  0.3849  1.9482
 5038SOL    HW319925   0.609   1.446   1.550  0.2874 -1.2536  0.5864
 5038SOL    MW419926   0.586   1.465   1.468 -0.1837  0.0427  0.5455
 5039SOL     OW19927   4.133   2.787   3.714  0.0968  0.4691 -0.3139
 5039SOL    HW219928   4.174   2.791   3.627 -1.8837  0.7149 -1.3024
 5039SOL    HW319929   4.053   2.838   3.704 -1.3094 -1.3462  1.0044
 5039SOL    MW419930   4.128   2.794   3.701 -0.3875  0.1073  0.7351
 5040SOL     OW19931   1.981   1.412   1.246 -0.0188 -0.3470 -0.0736
 5040SOL    HW219932   2.056   1.388   1.300  0.9970 -0.7877 -1.6116
 5040SOL    HW319933   1.936   1.480   1.296  1.9194  0.5946  0.4966
 5040SOL    MW419934   1.985   1.417   1.260 -0.0139 -0.1706  0.0872
 5041SOL     OW19935   5.611   3.337   4.758 -0.5647  0.0769 -0.3509
 5041SOL    HW219936   5.534   3.288   4.728 -0.1658 -1.6325  1.2313
 5041SOL    HW319937   5.581   3.386   4.833 -0.6720  1.4130 -1.2340
 5041SOL    MW419938   5.597   3.337   4.764 -0.3867 -0.0523  0.5595
 5042SOL     OW19939   4.644   1.188   3.592  0.0458 -0.2114  0.0601
 5042SOL    HW219940   4.580   1.156   3.656  0.6607 -1.4318  0.1065
 5042SOL    HW319941   4.684   1.108   3.557  3.0064  0.4649  1.5220
 5042SOL    MW419942   4.641   1.173   3.596  0.3514  0.0732  0.1210
 5043SOL     OW19943   5.330   5.072   5.382  0.4670 -0.3820  0.3475
 5043SOL    HW219944   5.239   5.083   5.407  0.4020  1.3137 -0.5096
 5043SOL    HW319945   5.380   5.097   5.460  0.2307 -0.9350  0.6869
 5043SOL    MW419946   5.325   5.077   5.395 -0.2334  0.0810 -0.1452
 5044SOL     OW19947   1.103   5.747   6.273  0.1903 -0.7594 -0.4214
 5044SOL    HW219948   1.186   5.763   6.316 -0.3426 -1.3031  0.8623
 5044SOL    HW319949   1.076   5.660   6.304 -1.0854 -0.3890 -0.4200
 5044SOL    MW419950   1.110   5.737   6.283  0.2588  0.2393 -0.0232
 5045SOL     OW19951   0.565   5.794   1.783 -0.2685 -0.3908 -0.0103
 5045SOL    HW219952   0.636   5.858   1.778  0.1846 -0.8160  0.7014
 5045SOL    HW319953   0.495   5.839   1.830  0.0538 -0.4160  0.5005
 5045SOL    MW419954   0.566   5.809   1.788  0.0979  1.0440 -0.3978
 5046SOL     OW19955   0.013   1.083   2.402  0.2994 -0.5270 -0.4636
 5046SOL    HW219956  -0.055   1.051   2.461 -1.1923 -1.2459 -2.4840
 5046SOL    HW319957   0.084   1.020   2.411 -0.4292 -1.3504 -0.3945
 5046SOL    MW419958   0.014   1.071   2.411  0.0539 -0.2872 -0.4853
 5047SOL     OW19959   4.171   5.872   4.272 -0.0684  0.2770 -0.0216
 5047SOL    HW219960   4.176   5.946   4.212 -3.7606 -0.2376 -1.2388
 5047SOL    HW319961   4.120   5.905   4.346  0.9292 -0.2482  0.9332
 5047SOL    MW419962   4.165   5.886   4.274  0.1675 -0.1494 -0.5162
 5048SOL     OW19963   2.834   4.100   4.286 -0.0262  0.1600 -0.2739
 5048SOL    HW219964   2.881   4.146   4.356 -0.1501 -0.5183  0.2650
 5048SOL    HW319965   2.742   4.108   4.311 -0.0967  0.2478 -0.5668
 5048SOL    MW419966   2.828   4.107   4.299  0.3583  0.1423  0.0738
 5049SOL     OW19967   4.682   4.156   5.483  0.0899 -0.3564  0.2494
 5049SOL    HW219968   4.613   4.220   5.466 -0.8595 -0.4856  3.1541
 5049SOL    HW319969   4.763   4.207   5.478 -0.1425 -0.0733 -2.5247
 5049SOL    MW419970   4.684   4.172   5.480  0.0774 -0.0280  0.1931
 5050SOL     OW19971   0.947   0.102   3.354  1.2971  0.3837 -0.0702
 5050SOL    HW219972   1.027   0.066   3.394  1.3492 -0.0510 -0.5493
 5050SOL    HW319973   0.898   0.139   3.427  1.1725 -0.7970  0.4740
 5050SOL    MW419974   0.951   0.102   3.369  0.1486 -0.5165 -0.1626
 5051SOL     OW19975   4.533   6.311   1.230  0.8927  0.5234 -0.5915
 5051SOL    HW219976   4.451   6.320   1.182  1.1258  2.0258 -0.7442
 5051SOL    HW319977   4.511   6.255   1.305 -0.3557  1.1645 -0.4557
 5051SOL    MW419978   4.519   6.304   1.234  0.5431  0.2606  0.2609
 5052SOL     OW19979   4.898   2.206   5.879  0.0632  0.2702  0.3166
 5052SOL    HW219980   4.854   2.183   5.797 -0.6103  0.8166  0.5165
 5052SOL    HW319981   4.964   2.270   5.853 -1.9100  2.5304  0.4981
 5052SOL    MW419982   4.901   2.212   5.865 -0.1017  0.0571  0.3281
 5053SOL     OW19983   4.346   3.404   5.784  0.2506  0.2999 -0.1526
 5053SOL    HW219984   4.270   3.379   5.836 -0.1288 -0.0254 -0.8426
 5053SOL    HW319985   4.359   3.497   5.803  0.1084  0.1917  0.4969
 5053SOL    MW419986   4.338   3.413   5.793 -0.3901  0.3614  0.7222
 5054SOL     OW19987   0.518   2.487   3.160 -1.1833  0.5618  0.3873
 5054SOL    HW219988   0.536   2.567   3.209 -1.5676  0.8406  0.0815
 5054SOL    HW319989   0.478   2.517   3.079 -0.4961  0.1113 -0.1303
 5054SOL    MW419990   0.515   2.501   3.156 -0.0331  0.2928 -0.0330
 5055SOL     OW19991   3.754   2.919   0.502  0.2769 -0.0833  0.2265
 5055SOL    HW219992   3.716   2.854   0.560  0.4080 -1.6793 -1.3842
 5055SOL    HW319993   3.697   2.918   0.425  0.0848  1.9872  0.2886
 5055SOL    MW419994   3.741   2.910   0.499 -0.4662 -0.1031  0.3048
 5056SOL     OW19995   2.579   5.080   5.965  0.0861  0.3081 -0.3478
 5056SOL    HW219996   2.632   5.034   5.899 -0.0139 -1.3319  0.6509
 5056SOL    HW319997   2.609   5.171   5.961 -0.3239  0.3818 -3.0237
 5056SOL    MW419998   2.590   5.086   5.956 -0.1405 -0.2028  0.0864
 5057SOL     OW19999   2.145   0.667   3.219 -0.0944  0.0606 -0.5336
 5057SOL    HW220000   2.209   0.667   3.290 -2.0083  2.3348  1.3764
 5057SOL    HW320001   2.093   0.587   3.234  0.0096  0.1197  0.1685
 5057SOL    MW420002   2.146   0.656   3.230 -0.3325 -0.3484  0.3957
 5058SOL     OW20003   4.488   0.381   5.198  0.9232 -0.6681 -0.0111
 5058SOL    HW220004   4.454   0.318   5.262  1.3912  1.8261  2.9426
 5058SOL    HW320005   4.419   0.388   5.132 -2.2678  0.5433  3.1218
 5058SOL    MW420006   4.474   0.374   5.198  0.2325  0.0191  0.1804
 5059SOL     OW20007   3.899   2.530   5.725 -0.1835 -0.1729 -0.5901
 5059SOL    HW220008   3.819   2.581   5.708 -1.3384 -1.9655 -0.7949
 5059SOL    HW320009   3.964   2.596   5.751 -1.9375  1.2851  0.3691
 5059SOL    MW420010   3.897   2.546   5.726  0.1887 -0.2495 -0.3038
 5060SOL     OW20011   2.289   2.092   3.485  0.1994 -0.3726 -0.0055
 5060SOL    HW220012   2.357   2.056   3.428 -0.4328 -0.4095 -0.7533
 5060SOL    HW320013   2.224   2.022   3.493 -0.0108 -0.1489  0.2598
 5060SOL    MW420014   2.289   2.078   3.479 -0.3385 -0.2941 -0.1082
 5061SOL     OW20015   3.538   1.031   2.914  0.0594 -0.0004  0.3962
 5061SOL    HW220016   3.521   1.125   2.922 -1.3152 -0.0541 -1.3522
 5061SOL    HW320017   3.586   1.023   2.832 -0.5038 -0.8972  0.1478
 5061SOL    MW420018   3.542   1.042   2.904  0.3424  0.4417  0.1836
 5062SOL     OW20019   4.489   4.354   5.425 -0.2183  0.5919  0.1853
 5062SOL    HW220020   4.528   4.399   5.350  0.5524 -0.8512 -0.3248
 5062SOL    HW320021   4.408   4.316   5.390 -0.0258  0.1946  0.1708
 5062SOL    MW420022   4.483   4.355   5.410 -0.4034  0.0084 -0.0627
 5063SOL     OW20023   6.318   2.662   4.113  0.0720 -0.7456 -0.5489
 5063SOL    HW220024   6.271   2.598   4.166  0.9034  1.6349  3.4989
 5063SOL    HW320025   6.374   2.709   4.175 -0.9726  4.3506 -2.9185
 5063SOL    MW420026   6.319   2.660   4.128 -0.0543  0.5766 -0.0597
 5064SOL     OW20027   6.241   0.574   0.905  0.0405  0.2689 -0.4123
 5064SOL    HW220028   6.190   0.649   0.936 -2.2838 -1.0394 -0.8744
 5064SOL    HW320029   6.274   0.533   0.986 -2.1305 -0.5051  0.1441
 5064SOL    MW420030   6.239   0.578   0.920  0.4803 -0.4122 -0.4021
 5065SOL     OW20031   4.598   1.156   6.153 -0.0451  0.0300 -0.1077
 5065SOL    HW220032   4.649   1.220   6.202  0.8836  0.5777 -1.6952
 5065SOL    HW320033   4.539   1.208   6.098 -3.6459 -0.5678  2.7934
 5065SOL    MW420034   4.597   1.171   6.152 -0.1210  0.2887 -0.3050
 5066SOL     OW20035   0.858   4.391   2.403 -0.3904  0.6324  0.7219
 5066SOL    HW220036   0.861   4.338   2.323 -2.0535 -2.0480  2.2934
 5066SOL    HW320037   0.785   4.450   2.390 -0.4159  0.4732  0.1107
 5066SOL    MW420038   0.849   4.392   2.391 -0.5629 -0.3261  0.1514
 5067SOL     OW20039   4.117   2.132   5.184 -0.0648 -0.1378 -0.3476
 5067SOL    HW220040   4.194   2.175   5.147  0.2554  1.0377  1.5559
 5067SOL    HW320041   4.043   2.171   5.137  0.1339  3.4857  2.0038
 5067SOL    MW420042   4.117   2.143   5.173  0.1910 -0.3311  0.3643
 5068SOL     OW20043   1.201   4.045   0.706 -0.0304  0.2935  0.1417
 5068SOL    HW220044   1.285   4.011   0.738 -0.7722 -1.1258  0.6332
 5068SOL    HW320045   1.200   4.020   0.613  0.6530  1.5034 -0.2226
 5068SOL    MW420046   1.212   4.037   0.698  0.0790 -0.0558  0.1334
 5069SOL     OW20047   5.518   2.064   5.220 -0.3327  0.5109 -0.1825
 5069SOL    HW220048   5.427   2.079   5.244 -1.4149  0.5559 -3.7711
 5069SOL    HW320049   5.518   1.976   5.182  0.3801  1.6184 -2.9811
 5069SOL    MW420050   5.506   2.054   5.218 -0.2454 -0.4097  0.2052
 5070SOL     OW20051   3.993   1.934   4.408 -0.6252 -0.5860 -0.1416
 5070SOL    HW220052   4.001   1.843   4.436 -1.6573 -0.6159  0.1267
 5070SOL    HW320053   3.966   1.929   4.316  1.2081 -0.5081 -0.7168
 5070SOL    MW420054   3.990   1.922   4.400  0.0073  0.2569 -0.1079
 5071SOL     OW20055   0.757   2.891   2.549  0.3247 -0.0044  0.3139
 5071SOL    HW220056   0.701   2.816   2.531 -1.6074  1.0221  1.6923
 5071SOL    HW320057   0.799   2.871   2.632  2.5868 -1.0361 -1.0016
 5071SOL    MW420058   0.755   2.879   2.557  0.5734  0.0849 -0.4600
 5072SOL     OW20059   1.203   4.662   0.969  0.3122  0.6897  0.1788
 5072SOL    HW220060   1.221   4.747   0.930  0.8318  0.1400 -0.8187
 5072SOL    HW320061   1.279   4.645   1.024  2.6029 -1.1263 -3.1733
 5072SOL    MW420062   1.216   4.671   0.971  0.0295 -0.4114  0.4764
 5073SOL     OW20063   5.170   5.170   5.060  0.1102 -0.2122  0.5360
 5073SOL    HW220064   5.170   5.265   5.068 -0.5373 -0.1347 -0.2564
 5073SOL    HW320065   5.255   5.148   5.022  0.7375 -0.0710  1.7894
 5073SOL    MW420066   5.181   5.180   5.056  0.2297 -0.1362  0.0941
 5074SOL     OW20067   3.312   4.069   3.079  0.0151  0.1499 -0.4393
 5074SOL    HW220068   3.268   4.013   3.144  1.1646 -0.5347 -0.2288
 5074SOL    HW320069   3.241   4.123   3.043 -0.7537  0.1167  0.9354
 5074SOL    MW420070   3.297   4.069   3.083 -0.0628 -0.0831 -0.0308
 5075SOL     OW20071   0.163   2.116   5.648  0.2044 -0.2326 -0.3846
 5075SOL    HW220072   0.069   2.098   5.641  0.5325 -2.0473 -0.6467
 5075SOL    HW320073   0.190   2.073   5.729  0.9636 -0.4748 -0.7525
 5075SOL    MW420074   0.154   2.108   5.658  0.7441 -0.1055  0.2176
 5076SOL     OW20075   3.001   3.540   3.053  0.5172  0.3451  0.0571
 5076SOL    HW220076   3.004   3.502   3.141 -2.9463 -0.0388  0.1533
 5076SOL    HW320077   2.984   3.633   3.066 -2.4791 -0.0931 -0.0731
 5076SOL    MW420078   2.999   3.547   3.066 -0.3591 -0.1456 -0.0129
 5077SOL     OW20079   1.005   0.343   4.799  0.2750  0.5784  0.5668
 5077SOL    HW220080   1.071   0.275   4.787 -0.0258 -0.0451  2.2234
 5077SOL    HW320081   0.990   0.377   4.711  2.7101  0.6704  0.1105
 5077SOL    MW420082   1.012   0.339   4.786 -0.1881  0.1592  0.2106
 5078SOL     OW20083   1.719   4.753   1.731  0.6483 -0.2476  0.4310
 5078SOL    HW220084   1.702   4.691   1.660  0.0741 -0.6594  0.9192
 5078SOL    HW320085   1.787   4.710   1.783  2.7691  1.0589 -1.0956
 5078SOL    MW420086   1.726   4.739   1.728 -0.1865  0.0344  0.2066
 5079SOL     OW20087   4.414   3.145   2.758 -0.7377  0.4918 -0.4503
 5079SOL    HW220088   4.324   3.127   2.787 -1.0101  1.7288 -0.4621
 5079SOL    HW320089   4.435   3.230   2.797  0.4280  0.2286 -0.4719
 5079SOL    MW420090   4.405   3.154   2.767  0.4213 -0.3145  0.4528
 5080SOL     OW20091   5.418   0.742   3.405 -0.5943  0.2918  0.1017
 5080SOL    HW220092   5.334   0.743   3.359 -1.0342  0.8479  0.8842
 5080SOL    HW320093   5.477   0.791   3.348 -1.1945  1.1818  0.2222
 5080SOL    MW420094   5.414   0.749   3.391  0.2860 -0.0183 -0.1226
 5081SOL     OW20095   4.611   2.019   2.644 -0.3871 -0.4161 -0.4589
 5081SOL    HW220096   4.565   1.939   2.618 -1.2944  0.3004 -1.1146
 5081SOL    HW320097   4.591   2.082   2.576  1.3368  0.0355 -0.6057
 5081SOL    MW420098   4.602   2.017   2.632 -0.4096  0.2614  0.5951
 5082SOL     OW20099   2.733   6.250   1.930 -0.4978  0.1711  0.6325
 5082SOL    HW220100   2.817   6.231   1.972  0.3539  1.4548 -0.4418
 5082SOL    HW320101   2.720   6.344   1.943 -1.6410  0.0372  0.5380
 5082SOL    MW420102   2.743   6.260   1.937 -0.1925 -0.1290 -0.1035
 5083SOL     OW20103   4.068   0.787   2.997 -0.0658 -0.0425 -0.4271
 5083SOL    HW220104   4.023   0.804   2.914 -0.9852 -1.5369 -0.2787
 5083SOL    HW320105   4.005   0.737   3.048  0.3245  1.2023  1.3691
 5083SOL    MW420106   4.054   0.783   2.992 -0.4796 -0.1208  0.5871
 5084SOL     OW20107   1.469   1.299   3.911  0.2590  0.2352  0.3032
 5084SOL    HW220108   1.553   1.262   3.937 -0.1696 -0.5259  0.6405
 5084SOL    HW320109   1.447   1.360   3.981  1.0876  1.3657 -0.3793
 5084SOL    MW420110   1.477   1.302   3.923  0.2211 -0.0608 -0.1658
 5085SOL     OW20111   0.994   6.133   5.941 -0.2722 -0.4952 -0.3285
 5085SOL    HW220112   1.005   6.068   5.872 -0.1670 -1.2085  0.3442
 5085SOL    HW320113   1.013   6.085   6.022 -0.6459  0.2531  0.2135
 5085SOL    MW420114   0.998   6.118   5.942 -0.3861 -0.6716 -0.5258
 5086SOL     OW20115   0.846   4.947   3.573 -0.2466 -0.0926  0.2253
 5086SOL    HW220116   0.797   4.865   3.575  0.2466 -0.3992 -0.1605
 5086SOL    HW320117   0.821   4.989   3.491 -0.4692  0.1308  0.4040
 5086SOL    MW420118   0.837   4.942   3.563 -0.3240 -0.4899 -0.1953
 5087SOL     OW20119   0.676   5.904   4.978  0.2011 -0.8816  0.3225
 5087SOL    HW220120   0.582   5.919   4.979  0.1093 -1.4346  0.3689
 5087SOL    HW320121   0.714   5.983   5.016 -0.2242 -0.5225  0.0046
 5087SOL    MW420122   0.669   5.916   4.983 -0.1068 -0.6557 -0.3149
 5088SOL     OW20123   2.824   3.909   2.428  0.0585 -0.1965  0.1059
 5088SOL    HW220124   2.742   3.954   2.447  0.7436  0.7890  0.8515
 5088SOL    HW320125   2.871   3.909   2.512  1.1312 -0.0603 -0.4805
 5088SOL    MW420126   2.819   3.915   2.442 -0.4142 -0.1859 -0.3640
 5089SOL     OW20127   1.650   6.210   0.999  0.0605 -0.2928  0.1848
 5089SOL    HW220128   1.624   6.292   1.040  0.1610  0.8159 -1.8320
 5089SOL    HW320129   1.746   6.212   1.002  0.0597 -0.7771  0.8909
 5089SOL    MW420130   1.660   6.221   1.005  0.7471  0.0162 -0.0230
 5090SOL     OW20131   1.020   1.578   1.151 -0.2777  0.5550 -0.1255
 5090SOL    HW220132   1.106   1.582   1.109 -0.6738 -1.7362 -1.3013
 5090SOL    HW320133   1.033   1.619   1.236  1.6448  1.3853 -0.7651
 5090SOL    MW420134   1.033   1.584   1.156 -0.4234 -0.9030  0.5319
 5091SOL     OW20135   0.156   5.614   4.790  0.3336 -0.1881 -0.3916
 5091SOL    HW220136   0.243   5.631   4.826  1.1314  1.2704 -2.7329
 5091SOL    HW320137   0.112   5.698   4.794 -0.2414 -0.4520 -0.9808
 5091SOL    MW420138   0.162   5.627   4.795  0.3189  0.0574 -0.2610
 5092SOL     OW20139   1.068   6.217   1.055 -0.0507 -0.0020 -0.0955
 5092SOL    HW220140   1.039   6.301   1.092 -0.4307 -0.6366  1.0840
 5092SOL    HW320141   1.109   6.171   1.129  1.7708 -0.1537 -1.1320
 5092SOL    MW420142   1.070   6.222   1.070  0.2017  0.5103  0.0644
 5093SOL     OW20143   2.329   5.720   1.636 -0.4168  0.0982 -0.3843
 5093SOL    HW220144   2.328   5.816   1.638  0.5168  0.1232 -0.5983
 5093SOL    HW320145   2.353   5.699   1.546  0.2910 -0.3275 -0.0951
 5093SOL    MW420146   2.332   5.730   1.625 -0.1162  0.0213  0.0105
 5094SOL     OW20147   1.606   5.908   5.128 -0.0824  0.1206 -0.0729
 5094SOL    HW220148   1.513   5.930   5.131 -0.8818 -2.6580 -1.0697
 5094SOL    HW320149   1.615   5.856   5.048  1.8751 -1.4770  1.0994
 5094SOL    MW420150   1.595   5.904   5.118  0.0331 -0.3644 -0.1123
 5095SOL     OW20151   2.834   4.383   5.728 -0.4568  0.3556 -0.0924
 5095SOL    HW220152   2.740   4.379   5.707 -0.5302 -0.2580  0.3239
 5095SOL    HW320153   2.838   4.367   5.822  0.2220 -2.0368 -0.4750
 5095SOL    MW420154   2.822   4.381   5.738 -0.4786  0.0438  0.4248
 5096SOL     OW20155   4.773   5.989   0.432  0.1515  0.2266  0.3053
 5096SOL    HW220156   4.682   5.964   0.416  0.8591 -0.6078 -3.1820
 5096SOL    HW320157   4.769   6.084   0.446 -1.3481 -0.0012  1.7386
 5096SOL    MW420158   4.760   5.998   0.432  0.1533 -0.7922 -0.4018
 5097SOL     OW20159   3.477   3.244   3.912  0.0735 -0.2421  0.3885
 5097SOL    HW220160   3.551   3.249   3.852  0.2930  0.1677  0.6896
 5097SOL    HW320161   3.462   3.150   3.924  0.1647 -0.3267 -0.1335
 5097SOL    MW420162   3.485   3.232   3.906 -0.0418 -0.1739  0.6998
 5098SOL     OW20163   1.451   0.374   4.031 -0.2227 -0.0296  0.3165
 5098SOL    HW220164   1.510   0.386   3.957 -0.6893 -0.5382 -0.1506
 5098SOL    HW320165   1.401   0.295   4.010  0.1781 -0.6361  1.5484
 5098SOL    MW420166   1.452   0.365   4.019  0.0705  0.3416 -0.4895
 5099SOL     OW20167   4.191   4.815   2.796 -0.1701 -0.5732 -0.0711
 5099SOL    HW220168   4.217   4.822   2.887 -0.4256 -0.4397 -0.0054
 5099SOL    HW320169   4.254   4.754   2.757  0.8360  0.4999 -0.1587
 5099SOL    MW420170   4.202   4.808   2.803  0.2353  0.8156  0.0338
 5100SOL     OW20171   4.370   2.753   3.238 -0.2770 -0.1445  0.3255
 5100SOL    HW220172   4.296   2.695   3.253 -0.4832 -0.5124 -1.7296
 5100SOL    HW320173   4.339   2.814   3.170  1.1457 -0.0257 -0.2660
 5100SOL    MW420174   4.356   2.754   3.231 -0.1083 -0.5346 -0.2718
 5101SOL     OW20175   1.299   0.282   4.924  0.3705 -0.2990  0.3181
 5101SOL    HW220176   1.208   0.264   4.948  0.6926 -1.6367  0.5865
 5101SOL    HW320177   1.306   0.378   4.930 -0.1492 -0.3416  3.5848
 5101SOL    MW420178   1.288   0.292   4.928 -0.1437 -0.5120  0.0655
 5102SOL     OW20179   3.386   6.303   1.531 -0.3171  0.1936 -0.2696
 5102SOL    HW220180   3.311   6.254   1.497 -0.4655  1.3969 -1.7941
 5102SOL    HW320181   3.430   6.337   1.453  0.5928  1.2785  0.6749
 5102SOL    MW420182   3.382   6.301   1.516 -0.0071  0.0935  0.1603
 5103SOL     OW20183   4.502   3.376   2.857 -0.4564  0.4521  0.0851
 5103SOL    HW220184   4.526   3.397   2.947  2.7114  2.5704 -1.0680
 5103SOL    HW320185   4.444   3.447   2.830 -0.4480  0.4672  0.1071
 5103SOL    MW420186   4.498   3.388   2.865  0.0458 -0.0749  0.0991
 5104SOL     OW20187   1.258   2.021   2.027 -0.5285 -0.6363 -0.0054
 5104SOL    HW220188   1.207   2.103   2.028 -1.7304 -1.3326  1.5250
 5104SOL    HW320189   1.337   2.041   2.077  0.4126  0.2580 -1.7828
 5104SOL    MW420190   1.261   2.034   2.034 -0.1256 -0.0973  0.2877
 5105SOL     OW20191   2.658   2.546   2.951 -0.2800 -0.0283  0.5788
 5105SOL    HW220192   2.691   2.533   3.039 -1.1616  0.5169  1.0066
 5105SOL    HW320193   2.727   2.594   2.905  0.6887 -1.3615  0.5952
 5105SOL    MW420194   2.671   2.551   2.956  0.2171 -0.3714 -0.2335
 5106SOL     OW20195   5.830   0.759   5.324 -0.3790  0.3801  0.3912
 5106SOL    HW220196   5.855   0.749   5.232  1.0942  2.6375  0.4610
 5106SOL    HW320197   5.735   0.761   5.323 -0.4769 -2.0102 -0.7577
 5106SOL    MW420198   5.821   0.758   5.312 -0.4540 -0.2848  0.0111
 5107SOL     OW20199   3.236   2.685   0.274  0.0035 -0.0171  0.0828
 5107SOL    HW220200   3.171   2.619   0.301 -2.3626  1.6485 -1.1265
 5107SOL    HW320201   3.196   2.728   0.198  1.8408  2.1939  0.2683
 5107SOL    MW420202   3.222   2.682   0.268  0.2185 -0.3158 -0.5770
 5108SOL     OW20203   6.253   2.406   1.532  0.7511  0.4032  0.1715
 5108SOL    HW220204   6.220   2.348   1.464  0.2223  0.8706  0.0267
 5108SOL    HW320205   6.256   2.351   1.611  0.4605  0.1213 -0.0140
 5108SOL    MW420206   6.249   2.391   1.534 -0.3257  0.3969 -0.0755
 5109SOL     OW20207   0.830   2.859   5.402 -1.2680 -0.7319  0.0564
 5109SOL    HW220208   0.885   2.789   5.436 -0.6978 -0.0627  0.5439
 5109SOL    HW320209   0.741   2.824   5.406 -0.8005 -2.3661 -2.0666
 5109SOL    MW420210   0.826   2.845   5.407  0.5044  0.0487 -0.0991
 5110SOL     OW20211   5.236   2.840   6.174  0.0037  0.5494  0.4173
 5110SOL    HW220212   5.269   2.866   6.260 -1.8135 -0.5692  1.5459
 5110SOL    HW320213   5.141   2.847   6.183 -0.2107  0.5190 -1.5632
 5110SOL    MW420214   5.228   2.844   6.187  0.3571  0.1528 -0.5036
 5111SOL     OW20215   5.765   1.516   1.129 -0.0216  0.0724  0.5337
 5111SOL    HW220216   5.721   1.573   1.193 -2.4411  0.0403 -1.0039
 5111SOL    HW320217   5.726   1.430   1.143 -1.3707  0.2757 -1.5921
 5111SOL    MW420218   5.754   1.512   1.139  0.2734 -0.2655  0.1380
 5112SOL     OW20219   0.597   6.228   3.375  0.0784 -0.2943  0.2882
 5112SOL    HW220220   0.641   6.146   3.355  2.0430  0.2931  1.8092
 5112SOL    HW320221   0.631   6.252   3.462 -1.3894  1.4909  0.4236
 5112SOL    MW420222   0.607   6.220   3.384  0.4946  0.2099  0.2941
 5113SOL     OW20223   5.529   0.218   3.448  0.4354  0.2433  0.0362
 5113SOL    HW220224   5.530   0.147   3.384 -0.4746  0.4810 -0.2610
 5113SOL    HW320225   5.551   0.296   3.398  0.5040  0.3091  0.1697
 5113SOL    MW420226   5.532   0.219   3.433  0.3821  0.2042 -0.3930
 5114SOL     OW20227   3.395   2.385   1.035  0.3089 -0.2331 -0.3239
 5114SOL    HW220228   3.348   2.366   0.954 -1.2670  1.9140  0.0143
 5114SOL    HW320229   3.474   2.432   1.006  0.2437 -0.3294 -0.6682
 5114SOL    MW420230   3.399   2.389   1.020 -0.0422 -0.1629 -0.1980
 5115SOL     OW20231   2.296   1.335   4.825 -0.1448  0.0190  0.0404
 5115SOL    HW220232   2.365   1.268   4.832 -0.1278 -0.1451 -1.3854
 5115SOL    HW320233   2.293   1.357   4.732 -2.8613 -0.8885 -0.1849
 5115SOL    MW420234   2.305   1.329   4.814  0.6750 -0.0467 -0.2193
 5116SOL     OW20235   2.314   5.209   2.309 -0.0028  0.2026 -0.2628
 5116SOL    HW220236   2.357   5.234   2.228 -1.0391  1.4547 -0.4551
 5116SOL    HW320237   2.311   5.289   2.361  0.4820 -0.5359  0.9603
 5116SOL    MW420238   2.319   5.223   2.305  0.5490 -0.1561 -0.2960
 5117SOL     OW20239   2.386   5.895   3.429  0.1199 -0.6034  0.8832
 5117SOL    HW220240   2.425   5.933   3.507 -1.2318 -0.1910  1.3914
 5117SOL    HW320241   2.314   5.841   3.462  0.0969 -1.1421 -0.0225
 5117SOL    MW420242   2.381   5.893   3.444 -0.0662  0.8232 -0.1744
 5118SOL     OW20243   1.660   3.708   3.460 -0.1579  0.3232  0.0800
 5118SOL    HW220244   1.708   3.780   3.419  2.9585 -0.8187  1.4268
 5118SOL    HW320245   1.698   3.629   3.420 -1.2227 -0.6416  0.9266
 5118SOL    MW420246   1.671   3.707   3.449 -0.0048 -0.0462  0.5637
 5119SOL     OW20247   2.069   0.791   5.003 -0.4143 -0.0181  0.3461
 5119SOL    HW220248   2.092   0.829   5.088  0.6475 -0.1913  0.1397
 5119SOL    HW320249   2.136   0.823   4.943  0.2815 -1.8754  0.0792
 5119SOL    MW420250   2.081   0.800   5.007  0.1297 -0.4855  0.1157
 5120SOL     OW20251   0.449   5.053   4.229 -0.3972  0.1508 -0.1681
 5120SOL    HW220252   0.393   5.108   4.284  0.0519 -1.1905  1.7406
 5120SOL    HW320253   0.525   5.033   4.284  0.1843 -1.0770 -1.3519
 5120SOL    MW420254   0.451   5.057   4.244 -0.4004 -0.1299 -0.0584
 5121SOL     OW20255   3.439   4.768   2.742 -0.2911  0.3115  0.0564
 5121SOL    HW220256   3.460   4.709   2.669 -0.2835  0.2443  0.1127
 5121SOL    HW320257   3.353   4.804   2.719 -1.0389 -0.9406  0.7799
 5121SOL    MW420258   3.430   4.765   2.729 -0.0827  0.2349  0.2413
 5122SOL     OW20259   0.354   1.062   5.450 -0.1993  0.1389 -0.3695
 5122SOL    HW220260   0.417   1.129   5.426 -0.8344  1.0721  0.4922
 5122SOL    HW320261   0.269   1.104   5.439 -0.6155 -0.5707  0.0482
 5122SOL    MW420262   0.351   1.076   5.446  0.2765 -0.5658 -0.7089
 5123SOL     OW20263   3.430   5.260   0.742  0.4436  0.9731 -0.4133
 5123SOL    HW220264   3.375   5.268   0.665  0.1104  0.5722 -0.2221
 5123SOL    HW320265   3.517   5.286   0.713  0.9749 -1.8789 -1.6992
 5123SOL    MW420266   3.435   5.265   0.728  0.6873 -0.0136  0.2603
 5124SOL     OW20267   4.271   0.657   1.325  0.0571  0.9622 -0.1799
 5124SOL    HW220268   4.340   0.596   1.351 -0.7211  0.3826  0.5645
 5124SOL    HW320269   4.315   0.718   1.266  0.7236 -0.6109 -1.3733
 5124SOL    MW420270   4.286   0.657   1.321  0.1280 -0.0690  0.3285
 5125SOL     OW20271   6.363   4.161   6.408 -0.2190 -0.0417 -0.4094
 5125SOL    HW220272   6.343   4.204   6.491 -0.0037 -0.0609 -0.3449
 5125SOL    HW320273   6.361   4.067   6.428 -0.5873 -0.0588 -0.5257
 5125SOL    MW420274   6.360   4.154   6.422  0.3101  0.2920  0.3612
 5126SOL     OW20275   5.648   3.949   2.370  0.2072 -0.0069 -0.5283
 5126SOL    HW220276   5.737   3.951   2.334  1.3365  0.0274  2.0535
 5126SOL    HW320277   5.631   4.040   2.396  0.4680 -0.4593  1.3010
 5126SOL    MW420278   5.657   3.961   2.369 -0.5561  0.5877 -0.0952
 5127SOL     OW20279   5.067   0.278   6.048  0.2403  0.4605 -0.2028
 5127SOL    HW220280   5.030   0.365   6.036  1.3768  0.8231 -1.1788
 5127SOL    HW320281   5.100   0.278   6.138 -1.4875  0.3446  0.4666
 5127SOL    MW420282   5.066   0.289   6.059 -0.0338  0.7074 -0.2203
 5128SOL     OW20283   4.289   1.627   1.008  0.9155  0.4190  0.4265
 5128SOL    HW220284   4.200   1.639   0.975  1.7415  1.3300 -1.6019
 5128SOL    HW320285   4.301   1.700   1.070  0.4187  0.5661  0.3554
 5128SOL    MW420286   4.279   1.638   1.012  0.2555  0.1628 -0.3297
 5129SOL     OW20287   6.323   2.060   5.674  0.3290  0.1092 -0.5962
 5129SOL    HW220288   6.241   2.015   5.652  0.5954 -1.3478  1.1742
 5129SOL    HW320289   6.295   2.136   5.727  0.1413 -1.5234  1.7943
 5129SOL    MW420290   6.308   2.064   5.678 -0.2888 -0.1186  0.1041
 5130SOL     OW20291   4.195   1.248   1.622 -0.5017 -0.4453  0.2623
 5130SOL    HW220292   4.263   1.196   1.578  0.7718 -1.4399  3.1659
 5130SOL    HW320293   4.131   1.183   1.652 -0.2053 -0.0974  1.7223
 5130SOL    MW420294   4.195   1.232   1.620 -0.4519  0.0130 -0.4314
 5131SOL     OW20295   1.757   0.572   3.910 -0.1780  0.4228  0.9968
 5131SOL    HW220296   1.691   0.641   3.903 -0.2035  0.3954  0.9642
 5131SOL    HW320297   1.713   0.494   3.877  0.1170  0.5673  0.2471
 5131SOL    MW420298   1.742   0.571   3.905  0.2128 -0.4726 -0.5998
 5132SOL     OW20299   3.372   1.348   0.247 -0.6411 -0.2534  0.0089
 5132SOL    HW220300   3.305   1.417   0.253 -0.9521 -0.5377 -0.1607
 5132SOL    HW320301   3.450   1.388   0.284 -0.9761 -0.0059  0.4684
 5132SOL    MW420302   3.373   1.363   0.253 -0.5542  0.0497  0.2400
 5133SOL     OW20303   4.045   4.372   5.513  0.2104  0.7581  0.3679
 5133SOL    HW220304   4.003   4.287   5.526  0.1814  0.9700  1.8467
 5133SOL    HW320305   4.024   4.396   5.423  0.4241 -0.9067 -0.1590
 5133SOL    MW420306   4.037   4.364   5.503 -0.2330  0.0597  0.2727
 5134SOL     OW20307   2.217   0.958   4.828  0.3576 -0.3170 -0.2041
 5134SOL    HW220308   2.249   1.004   4.905 -1.6775  0.2652  0.3643
 5134SOL    HW320309   2.225   1.021   4.757  1.2938 -0.5019 -0.2681
 5134SOL    MW420310   2.222   0.972   4.829 -0.1712 -0.0801 -0.5578
 5135SOL     OW20311   0.829   1.319   4.913 -0.6791 -0.5677 -0.3715
 5135SOL    HW220312   0.818   1.249   4.848 -2.0339 -0.6991 -0.0126
 5135SOL    HW320313   0.743   1.360   4.920 -0.2770  0.1595  0.5536
 5135SOL    MW420314   0.816   1.315   4.905 -0.4135  0.3956  0.1568
 5136SOL     OW20315   0.599   3.609   6.330 -0.5043  0.2584  0.0378
 5136SOL    HW220316   0.554   3.636   6.250 -1.2440  2.0797  1.0163
 5136SOL    HW320317   0.559   3.662   6.399  0.5147 -0.8494  1.5365
 5136SOL    MW420318   0.588   3.619   6.328  0.1093 -0.4387  0.4100
 5137SOL     OW20319   0.754   2.285   5.825  0.3076 -0.3446 -0.0266
 5137SOL    HW220320   0.728   2.248   5.909  1.2077 -0.2590  0.2920
 5137SOL    HW320321   0.694   2.358   5.811  0.6139  0.0890  0.8876
 5137SOL    MW420322   0.743   2.289   5.834 -0.2539  0.5761  0.1987
 5138SOL     OW20323   1.890   6.146   0.069  0.3866 -0.2185  0.3760
 5138SOL    HW220324   1.957   6.188   0.123  1.1041  0.2958 -0.8703
 5138SOL    HW320325   1.834   6.218   0.041  1.1808 -0.1595 -1.1525
 5138SOL    MW420326   1.892   6.161   0.072  0.3080  0.3785 -0.7056
 5139SOL     OW20327   0.537   4.543   1.166 -0.7269  0.1553 -0.1424
 5139SOL    HW220328   0.488   4.507   1.092 -3.9270 -0.4423  2.0596
 5139SOL    HW320329   0.481   4.613   1.200 -1.0292 -1.6770  3.5557
 5139SOL    MW420330   0.523   4.548   1.161  0.5119 -0.2605 -0.4862
 5140SOL     OW20331   0.549   0.809   1.560 -0.3755 -0.9743 -0.1692
 5140SOL    HW220332   0.560   0.897   1.526  0.3983 -0.8585  0.3466
 5140SOL    HW320333   0.584   0.751   1.492  0.6285 -0.7767  0.1529
 5140SOL    MW420334   0.555   0.813   1.547 -0.7136 -0.1331 -0.5070
 5141SOL     OW20335   2.735   2.026   3.151  0.6173 -0.2875 -0.0978
 5141SOL    HW220336   2.665   1.986   3.202  0.0862  0.1026 -0.5067
 5141SOL    HW320337   2.810   1.969   3.165  0.5529 -0.0719  1.2882
 5141SOL    MW420338   2.735   2.013   3.159  0.1792 -0.4579 -0.1115
 5142SOL     OW20339   0.742   3.070   1.559 -0.2328 -0.4446  0.4230
 5142SOL    HW220340   0.715   3.008   1.626  0.0724 -0.5140  0.4849
 5142SOL    HW320341   0.806   3.022   1.505  0.3925 -0.0347  0.7783
 5142SOL    MW420342   0.747   3.056   1.561  0.0975 -0.3267  0.2447
 5143SOL     OW20343   2.673   5.840   6.073  0.2786  0.1554 -0.5451
 5143SOL    HW220344   2.697   5.764   6.020  1.2057  0.6182 -0.8122
 5143SOL    HW320345   2.757   5.882   6.094 -0.1386  0.5155  0.4921
 5143SOL    MW420346   2.687   5.835   6.069  0.5152  0.1717 -0.9748
 5144SOL     OW20347   1.711   5.441   0.290 -0.0871  0.3776  0.1948
 5144SOL    HW220348   1.759   5.374   0.340  1.8307  1.4699 -0.0626
 5144SOL    HW320349   1.675   5.393   0.215  0.6854 -0.5172  0.3724
 5144SOL    MW420350   1.713   5.426   0.286  0.1262 -0.8257 -0.6044
 5145SOL     OW20351   1.658   2.515   0.073 -0.0244 -0.0300 -0.3119
 5145SOL    HW220352   1.594   2.484   0.009  0.5581 -0.6688 -0.5927
 5145SOL    HW320353   1.696   2.435   0.110  1.2305  0.3287 -0.7753
 5145SOL    MW420354   1.654   2.500   0.070 -0.0539 -0.3093 -0.0202
 5146SOL     OW20355   3.302   4.913   1.684 -0.0118  0.3788 -0.2164
 5146SOL    HW220356   3.310   5.008   1.684 -0.0938  0.3976  0.7651
 5146SOL    HW320357   3.208   4.897   1.683  0.0036  0.2981 -0.6230
 5146SOL    MW420358   3.291   4.923   1.684 -0.2379  0.3041  0.1090
 5147SOL     OW20359   2.878   5.854   3.194 -0.3319 -0.0150 -0.5465
 5147SOL    HW220360   2.819   5.798   3.144  0.1682  0.4707 -1.7215
 5147SOL    HW320361   2.874   5.939   3.150 -0.8482  0.8090  1.0220
 5147SOL    MW420362   2.870   5.858   3.181 -0.0681  0.5355  0.5273
 5148SOL     OW20363   6.134   5.983   1.106 -0.0119  0.2275 -0.3755
 5148SOL    HW220364   6.204   5.992   1.170 -0.6451 -0.3339  0.4089
 5148SOL    HW320365   6.154   5.902   1.059  0.2916  0.4845 -0.6952
 5148SOL    MW420366   6.146   5.974   1.108 -0.4316 -0.7341 -0.2639
 5149SOL     OW20367   2.144   3.948   0.633 -0.6556 -0.0950  0.4809
 5149SOL    HW220368   2.115   3.908   0.551 -0.3347  1.0166 -0.2043
 5149SOL    HW320369   2.067   3.944   0.690 -0.0706 -3.4878  1.2021
 5149SOL    MW420370   2.130   3.942   0.629 -0.0623 -0.4739  0.2746
 5150SOL     OW20371   3.359   5.901   4.518 -0.0993  0.2456 -0.5917
 5150SOL    HW220372   3.285   5.939   4.565 -0.4676 -1.6146  0.4027
 5150SOL    HW320373   3.319   5.846   4.450  0.3827 -0.0839 -0.6136
 5150SOL    MW420374   3.344   5.899   4.515 -0.5103  0.2710  0.0764
 5151SOL     OW20375   1.765   3.374   4.650 -0.1501 -0.8147  0.0122
 5151SOL    HW220376   1.725   3.451   4.610  0.7926 -0.1912  0.2153
 5151SOL    HW320377   1.709   3.301   4.625 -0.7802 -0.1295 -0.6143
 5151SOL    MW420378   1.753   3.375   4.642  1.1565 -0.1623 -0.4005
 5152SOL     OW20379   2.055   0.859   5.641 -0.2596 -0.1356  0.3368
 5152SOL    HW220380   2.048   0.788   5.704 -0.2185  0.3967  0.9520
 5152SOL    HW320381   2.012   0.825   5.562 -0.5717 -0.7005  0.7397
 5152SOL    MW420382   2.048   0.845   5.639 -0.5520  0.2000 -0.0808
 5153SOL     OW20383   2.800   2.044   0.109  0.0319 -0.5015 -0.1874
 5153SOL    HW220384   2.715   2.079   0.084  0.4787  0.6687 -0.1640
 5153SOL    HW320385   2.805   2.060   0.203 -0.7112 -2.8238  0.3205
 5153SOL    MW420386   2.790   2.051   0.118 -0.2892  0.0652 -0.0293
 5154SOL     OW20387   0.173   0.654   2.719 -0.0235 -0.1697  0.1212
 5154SOL    HW220388   0.230   0.611   2.783 -0.7408 -2.6807 -0.8310
 5154SOL    HW320389   0.231   0.711   2.670  0.5919  1.7410  2.7977
 5154SOL    MW420390   0.188   0.656   2.721 -0.5400  0.0467 -0.0862
 5155SOL     OW20391   2.280   1.205   0.708  0.4823 -0.6495 -0.1235
 5155SOL    HW220392   2.186   1.203   0.693  0.5351 -0.1197 -0.5598
 5155SOL    HW320393   2.293   1.156   0.789 -0.5137  2.1247  1.8589
 5155SOL    MW420394   2.269   1.198   0.716 -0.5164 -0.4397 -0.2025
 5156SOL     OW20395   3.825   2.282   0.723 -0.8432  0.3523 -0.2447
 5156SOL    HW220396   3.885   2.252   0.654  0.5930  1.6987  0.3631
 5156SOL    HW320397   3.880   2.288   0.801 -2.7117 -2.4380  1.4347
 5156SOL    MW420398   3.840   2.279   0.724 -0.2105 -0.1619  0.2183
 5157SOL     OW20399   3.528   1.751   5.726  0.0592  0.8641  0.1316
 5157SOL    HW220400   3.452   1.694   5.709 -0.7506  1.4788  1.4606
 5157SOL    HW320401   3.597   1.717   5.669 -1.6297  1.2162 -2.2513
 5157SOL    MW420402   3.527   1.739   5.717  0.0283 -0.1077  0.5132
 5158SOL     OW20403   3.977   0.566   2.537 -0.2677 -0.1276  0.5440
 5158SOL    HW220404   3.961   0.545   2.445 -0.9376 -0.8047  0.8090
 5158SOL    HW320405   3.892   0.553   2.580 -0.7208  2.8137  0.8037
 5158SOL    MW420406   3.964   0.562   2.531  0.2845 -0.1632 -0.4972
 5159SOL     OW20407   4.569   4.669   4.599  0.1459  0.5462 -0.5818
 5159SOL    HW220408   4.660   4.663   4.569  0.3184 -0.2052  0.0603
 5159SOL    HW320409   4.560   4.759   4.631  0.5287  0.7602 -1.0643
 5159SOL    MW420410   4.580   4.680   4.599 -0.4166  0.0933  0.0517
 5160SOL     OW20411   2.559   2.564   4.566 -0.6530 -0.3489 -0.3599
 5160SOL    HW220412   2.500   2.518   4.506 -0.3950  0.3145 -1.1560
 5160SOL    HW320413   2.614   2.617   4.508 -0.0182 -0.1162  0.4427
 5160SOL    MW420414   2.558   2.565   4.550 -0.3548 -0.4133 -0.3901
 5161SOL     OW20415   0.795   3.753   0.629  0.3656  0.0894 -0.1617
 5161SOL    HW220416   0.794   3.842   0.665 -1.0718  0.0175  0.0072
 5161SOL    HW320417   0.704   3.734   0.608  0.9954 -0.2140 -3.0797
 5161SOL    MW420418   0.783   3.762   0.631 -0.1323 -0.6149  0.2528
 5162SOL     OW20419   0.761   0.117   0.266  0.2713 -0.1058  0.5498
 5162SOL    HW220420   0.796   0.107   0.177 -0.1339 -1.0181  0.4725
 5162SOL    HW320421   0.798   0.199   0.298 -1.3314  1.4422 -1.2825
 5162SOL    MW420422   0.770   0.126   0.258 -0.3333  0.1397 -0.4068
 5163SOL     OW20423   2.966   0.819   0.845 -0.0191  0.8841 -0.0841
 5163SOL    HW220424   2.926   0.906   0.844 -2.0726  0.0064  0.5581
 5163SOL    HW320425   3.060   0.836   0.850 -0.3962  3.0659  0.7282
 5163SOL    MW420426   2.973   0.833   0.846 -0.3020  0.2822 -0.7232
 5164SOL     OW20427   3.825   3.382   4.980  0.6073 -0.5530 -0.0377
 5164SOL    HW220428   3.889   3.434   5.028  1.1253 -0.4276 -0.8428
 5164SOL    HW320429   3.758   3.446   4.953 -0.0798 -0.7458  1.1245
 5164SOL    MW420430   3.824   3.397   4.983 -0.2257 -0.3233  0.0440
 5165SOL     OW20431   1.228   4.714   5.047  0.0269 -0.2485  1.1181
 5165SOL    HW220432   1.244   4.696   5.140  1.2577  0.8667  1.1480
 5165SOL    HW320433   1.155   4.776   5.047 -0.3002 -0.6214  1.2936
 5165SOL    MW420434   1.220   4.720   5.059 -0.5504 -0.2321 -0.3291
 5166SOL     OW20435   3.797   5.584   3.539  0.2994  0.2140  0.2574
 5166SOL    HW220436   3.748   5.578   3.457 -0.2577  0.0381  0.6052
 5166SOL    HW320437   3.840   5.670   3.535  0.2156  0.2375 -0.1819
 5166SOL    MW420438   3.796   5.594   3.527 -0.3010 -0.0196 -0.3710
 5167SOL     OW20439   4.888   1.751   3.214 -0.4629  0.1002 -0.6346
 5167SOL    HW220440   4.915   1.839   3.237 -0.2663 -0.1137 -0.0252
 5167SOL    HW320441   4.957   1.718   3.157 -0.3308  0.1950 -0.5291
 5167SOL    MW420442   4.901   1.758   3.210 -0.8140  0.6178  0.5621
 5168SOL     OW20443   2.022   5.496   1.402  0.5203 -0.3257  0.0712
 5168SOL    HW220444   2.037   5.433   1.473 -2.1557  0.2454  1.2797
 5168SOL    HW320445   1.958   5.454   1.346 -1.4674  1.2787  1.0015
 5168SOL    MW420446   2.016   5.482   1.404 -0.0242 -0.1752  0.0179
 5169SOL     OW20447   1.103   1.477   3.403 -0.8084  0.2949  0.0618
 5169SOL    HW220448   1.128   1.424   3.479  1.2718 -0.7642 -1.2656
 5169SOL    HW320449   1.098   1.567   3.436  0.7048 -0.0512  1.3290
 5169SOL    MW420450   1.106   1.482   3.417  0.5821 -0.0206 -0.2376
 5170SOL     OW20451   4.051   1.168   5.099  0.1395  0.1662  0.2903
 5170SOL    HW220452   4.143   1.143   5.088  0.7641  2.5074 -0.4087
 5170SOL    HW320453   4.021   1.187   5.010 -0.8131  0.1353  0.5980
 5170SOL    MW420454   4.059   1.167   5.086 -0.3605  0.8531 -0.7114
 5171SOL     OW20455   3.270   5.942   0.460  0.3419 -0.2916  0.4004
 5171SOL    HW220456   3.209   6.011   0.485 -0.4685 -0.2757 -1.5069
 5171SOL    HW320457   3.271   5.883   0.535 -1.2271  0.2486  0.8829
 5171SOL    MW420458   3.262   5.944   0.473  0.3291  0.6407 -0.2945
 5172SOL     OW20459   3.889   2.149   2.061  0.5858  0.1713 -0.1782
 5172SOL    HW220460   3.901   2.099   1.980  0.6752 -1.8952  1.0537
 5172SOL    HW320461   3.821   2.101   2.109 -0.3950  2.0817  0.4562
 5172SOL    MW420462   3.881   2.136   2.057  0.3440 -0.1079  0.0392
 5173SOL     OW20463   4.156   2.095   1.611 -0.1012 -0.1660  0.2008
 5173SOL    HW220464   4.190   2.084   1.700  1.3489  0.7153 -0.2106
 5173SOL    HW320465   4.169   2.009   1.571 -1.1619 -0.6982  0.9375
 5173SOL    MW420466   4.162   2.082   1.618 -0.2822  0.0694 -0.1889
 5174SOL     OW20467   0.829   3.990   4.541  0.6343  0.0707 -0.1493
 5174SOL    HW220468   0.874   3.918   4.586  2.0577  0.8984 -0.1812
 5174SOL    HW320469   0.858   4.068   4.587  0.6036  0.7746 -1.3022
 5174SOL    MW420470   0.839   3.990   4.553 -0.6521  0.3088  0.6786
 5175SOL     OW20471   2.355   2.330   5.278  0.1164 -0.2332  0.3778
 5175SOL    HW220472   2.424   2.274   5.313 -0.0493 -0.0060  1.1032
 5175SOL    HW320473   2.393   2.369   5.199  0.2481 -1.3043 -0.0995
 5175SOL    MW420474   2.369   2.328   5.272  0.2163  0.3985  0.3328
 5176SOL     OW20475   4.914   3.234   0.240  0.3185 -0.5178  1.0896
 5176SOL    HW220476   4.840   3.285   0.208  0.4873 -1.4738 -0.9272
 5176SOL    HW320477   4.875   3.170   0.299 -0.2316  0.0874  1.3985
 5176SOL    MW420478   4.899   3.233   0.244 -0.0588  0.5134 -0.1127
 5177SOL     OW20479   4.418   2.335   0.562  0.0261 -0.4944  0.3194
 5177SOL    HW220480   4.403   2.404   0.496  0.3956 -0.8172 -0.1072
 5177SOL    HW320481   4.476   2.273   0.518 -0.8212 -1.4178  0.4699
 5177SOL    MW420482   4.424   2.336   0.547  0.0703 -0.0553  0.0213
 5178SOL     OW20483   2.989   6.266   3.061  0.1275 -0.3083 -0.9296
 5178SOL    HW220484   2.911   6.212   3.073 -0.1120 -0.0701 -1.4286
 5178SOL    HW320485   3.057   6.203   3.034 -0.5226 -0.1844 -3.0342
 5178SOL    MW420486   2.988   6.250   3.059 -0.0370 -0.4365  0.4775
 5179SOL     OW20487   1.654   2.327   5.940 -0.2298 -0.3642 -0.2514
 5179SOL    HW220488   1.609   2.298   6.019  0.1712  0.5321  0.3272
 5179SOL    HW320489   1.586   2.370   5.888 -0.4179 -0.6244 -0.2200
 5179SOL    MW420490   1.639   2.329   5.943 -0.3443 -0.0128  0.2422
 5180SOL     OW20491   1.495   4.986   4.093 -0.2692 -0.2385  0.7097
 5180SOL    HW220492   1.494   5.080   4.112 -3.1788 -0.1084  0.3679
 5180SOL    HW320493   1.560   4.950   4.153 -2.1278  1.4537  4.0515
 5180SOL    MW420494   1.503   4.994   4.104 -0.1009 -0.4707 -0.6340
 5181SOL     OW20495   6.296   6.315   1.401  0.1079 -0.0112  0.0446
 5181SOL    HW220496   6.332   6.402   1.414 -0.9184  0.5940 -1.0254
 5181SOL    HW320497   6.303   6.299   1.307 -1.2796 -0.3512 -0.0333
 5181SOL    MW420498   6.301   6.324   1.391  0.0922  0.2184 -0.0543
 5182SOL     OW20499   4.321   1.700   3.039 -0.1545 -0.2041  0.0730
 5182SOL    HW220500   4.268   1.691   3.118 -0.2624 -0.5782 -0.0384
 5182SOL    HW320501   4.310   1.617   2.993 -0.5761  0.2406 -0.6388
 5182SOL    MW420502   4.313   1.688   3.043  0.1845 -0.3137 -0.2968
 5183SOL     OW20503   4.040   2.951   3.305  0.2941 -0.6217 -0.6496
 5183SOL    HW220504   3.956   2.909   3.290  0.0673 -0.8090  0.9548
 5183SOL    HW320505   4.094   2.884   3.346  1.1543 -0.4223 -1.4157
 5183SOL    MW420506   4.036   2.937   3.308  0.9407 -0.2931  0.1595
 5184SOL     OW20507   6.251   3.843   3.608  0.3993 -0.2000 -0.3056
 5184SOL    HW220508   6.235   3.814   3.698 -1.7235  0.1800 -0.4967
 5184SOL    HW320509   6.323   3.906   3.616  0.4899 -0.4337  1.0779
 5184SOL    MW420510   6.258   3.848   3.621  0.3959  0.1313 -0.5841
 5185SOL     OW20511   4.322   0.004   4.881  0.6395 -0.7378  0.0828
 5185SOL    HW220512   4.322  -0.091   4.889 -1.2513 -0.7124  0.9567
 5185SOL    HW320513   4.242   0.032   4.925  0.9381  1.2347 -0.5138
 5185SOL    MW420514   4.311  -0.005   4.888 -0.4961  0.3111  0.5543
 5186SOL     OW20515   3.772   1.384   6.139 -0.4424  0.2643  0.0764
 5186SOL    HW220516   3.723   1.338   6.207 -0.2485  1.6289  1.1689
 5186SOL    HW320517   3.843   1.324   6.116 -2.4789 -1.7289 -1.4954
 5186SOL    MW420518   3.775   1.370   6.145  0.3864 -0.1371 -0.4131
 5187SOL     OW20519   4.410   0.789   6.419 -0.2277  0.3761 -0.0806
 5187SOL    HW220520   4.424   0.856   6.353  2.5526  1.4742  1.4358
 5187SOL    HW320521   4.317   0.794   6.440 -1.5368 -0.8885 -4.6184
 5187SOL    MW420522   4.400   0.798   6.413 -0.0151 -0.0962 -0.0613
 5188SOL     OW20523   1.193   3.093   2.122 -0.7546 -0.5200  0.0827
 5188SOL    HW220524   1.255   3.161   2.095 -1.6682  0.3389  0.0732
 5188SOL    HW320525   1.153   3.063   2.041 -1.2300 -0.1837  0.1862
 5188SOL    MW420526   1.196   3.098   2.108  0.2693 -0.0779 -0.1530
 5189SOL     OW20527   4.572   1.241   2.692  0.0164 -0.4966 -0.0167
 5189SOL    HW220528   4.507   1.236   2.763 -1.6961 -0.8486 -1.5386
 5189SOL    HW320529   4.531   1.297   2.626  0.4382 -2.1916 -1.8031
 5189SOL    MW420530   4.558   1.248   2.693  0.6786 -0.0308  0.2809
 5190SOL     OW20531   0.152   3.293   2.556  0.3138  0.0560  0.5390
 5190SOL    HW220532   0.080   3.353   2.578 -0.2071 -0.7425  1.0450
 5190SOL    HW320533   0.116   3.235   2.489  0.5741 -0.1703  0.5924
 5190SOL    MW420534   0.138   3.294   2.550  0.4637 -0.0125 -0.4847
 5191SOL     OW20535   2.290   2.363   3.061  0.2245  0.2640 -0.2027
 5191SOL    HW220536   2.268   2.311   2.984  0.8049 -1.7065  0.8809
 5191SOL    HW320537   2.367   2.319   3.098  1.4395  2.5702  0.1906
 5191SOL    MW420538   2.297   2.350   3.056  0.0706  0.2373  0.2865
 5192SOL     OW20539   0.455   2.083   5.274  0.0677  0.0316 -0.0532
 5192SOL    HW220540   0.541   2.124   5.283  0.1007  0.0938 -0.6318
 5192SOL    HW320541   0.395   2.143   5.319 -0.0670  1.3553 -1.8915
 5192SOL    MW420542   0.458   2.097   5.281 -0.7203 -0.5020 -0.5022
 5193SOL     OW20543   1.590   3.674   3.722 -0.4499 -0.0265  0.5048
 5193SOL    HW220544   1.601   3.672   3.627  1.5755  1.5133  0.6148
 5193SOL    HW320545   1.496   3.682   3.735 -0.7937 -0.5092 -1.3527
 5193SOL    MW420546   1.579   3.675   3.711 -0.7423  0.6522  0.8236
 5194SOL     OW20547   3.300   5.449   2.836  0.2682  0.2935 -0.0657
 5194SOL    HW220548   3.358   5.376   2.859 -1.2113 -1.1925 -0.7900
 5194SOL    HW320549   3.216   5.425   2.875 -0.2298  1.6963 -0.2357
 5194SOL    MW420550   3.296   5.436   2.844 -0.1959  0.2713 -0.0256
 5195SOL     OW20551   1.717   2.447   2.420  0.9945  0.2639  0.0895
 5195SOL    HW220552   1.680   2.406   2.342 -1.0335 -1.0391  1.6213
 5195SOL    HW320553   1.699   2.540   2.410  0.3461  0.0509 -0.7982
 5195SOL    MW420554   1.710   2.454   2.409 -0.0030  0.5264  0.2966
 5196SOL     OW20555   0.248   6.241   4.544 -0.0219  0.0504  0.5696
 5196SOL    HW220556   0.336   6.277   4.531 -0.5171  1.4606  0.9521
 5196SOL    HW320557   0.248   6.209   4.634  0.5249 -1.2601  0.1237
 5196SOL    MW420558   0.260   6.242   4.554 -0.2986  0.1366  0.0495
 5197SOL     OW20559   6.423   0.547   2.137 -0.5951  0.3343 -0.1350
 5197SOL    HW220560   6.373   0.623   2.107  0.0093  0.8974  0.2386
 5197SOL    HW320561   6.470   0.579   2.214 -0.1130 -0.3438 -0.1378
 5197SOL    MW420562   6.422   0.562   2.144 -0.2644  0.5789  0.1336
 5198SOL     OW20563   3.152   3.138   2.315 -0.1412  0.0877 -0.2114
 5198SOL    HW220564   3.114   3.215   2.274 -0.2911 -0.6933 -1.6029
 5198SOL    HW320565   3.199   3.094   2.245 -0.7369 -1.5200  0.3429
 5198SOL    MW420566   3.153   3.142   2.301  0.4681  0.1741  0.1477
 5199SOL     OW20567   1.051   6.002   4.455  0.1835  0.8166 -0.1691
 5199SOL    HW220568   1.112   6.072   4.478 -0.5773  1.5162 -0.2144
 5199SOL    HW320569   0.966   6.046   4.445 -0.0784  0.0840 -1.4435
 5199SOL    MW420570   1.048   6.017   4.457 -0.0591 -0.5194  0.3896
 5200SOL     OW20571   0.810   0.576   5.133 -0.3242  0.2947 -0.1381
 5200SOL    HW220572   0.790   0.638   5.063  0.7357 -0.1176 -0.8263
 5200SOL    HW320573   0.900   0.549   5.116 -0.6036 -1.0654  0.4344
 5200SOL    MW420574   0.819   0.581   5.122 -0.0520 -0.0819 -0.1758
 5201SOL     OW20575   1.604   3.310   1.041  0.2940  0.2989  0.1227
 5201SOL    HW220576   1.529   3.253   1.025 -0.1510  0.1986  2.3022
 5201SOL    HW320577   1.613   3.362   0.960 -0.5821 -1.3650 -1.0890
 5201SOL    MW420578   1.595   3.310   1.028  0.8006 -0.6947 -0.9670
 5202SOL     OW20579   3.580   0.444   0.284 -0.2568  0.0069 -0.9978
 5202SOL    HW220580   3.667   0.429   0.247  0.2073 -1.7752  0.6441
 5202SOL    HW320581   3.596   0.460   0.377 -1.6270  0.7320 -0.8594
 5202SOL    MW420582   3.593   0.444   0.292 -0.0668 -0.0585  0.4211
 5203SOL     OW20583   0.930   5.082   1.122 -0.8255  0.1005  0.2297
 5203SOL    HW220584   0.944   5.026   1.198 -0.2836 -0.3521 -0.1922
 5203SOL    HW320585   0.845   5.055   1.087 -0.8389 -0.0483  0.3778
 5203SOL    MW420586   0.921   5.071   1.127 -0.0253  0.3042 -0.3328
 5204SOL     OW20587   3.567   2.389   0.673 -0.5146 -0.4027 -0.4292
 5204SOL    HW220588   3.564   2.433   0.588 -0.7812 -0.1580 -0.2925
 5204SOL    HW320589   3.659   2.363   0.684 -0.6572 -1.3581 -1.2690
 5204SOL    MW420590   3.579   2.391   0.663  0.3385 -0.0927 -0.2241
 5205SOL     OW20591   1.435   1.206   6.004  0.6672 -0.0709 -0.6432
 5205SOL    HW220592   1.501   1.272   5.984 -0.4850  1.2195 -0.3456
 5205SOL    HW320593   1.408   1.226   6.094  0.4224 -1.0787 -0.4763
 5205SOL    MW420594   1.440   1.217   6.014  0.0772  0.1723 -0.3005
 5206SOL     OW20595   6.315   3.485   4.852 -0.4103 -0.2593 -0.5303
 5206SOL    HW220596   6.264   3.550   4.899 -1.2832 -0.9943 -0.4383
 5206SOL    HW320597   6.290   3.495   4.761  2.1715  1.9927 -1.1317
 5206SOL    MW420598   6.305   3.495   4.846 -0.4426  0.2071  0.6139
 5207SOL     OW20599   3.448   4.830   5.032  0.7499  0.2773  0.0765
 5207SOL    HW220600   3.504   4.836   5.110  0.6990  2.7964 -0.0154
 5207SOL    HW320601   3.421   4.920   5.015 -1.8646 -0.6248 -0.9801
 5207SOL    MW420602   3.452   4.843   5.040  0.7013 -0.1883  0.2526
 5208SOL     OW20603   1.340   0.719   2.750 -0.6504  0.6257 -0.2812
 5208SOL    HW220604   1.248   0.713   2.775 -0.2708  0.4510  1.1168
 5208SOL    HW320605   1.374   0.630   2.762 -0.3031  0.6787 -0.8392
 5208SOL    MW420606   1.332   0.706   2.755  0.6540 -0.3234  0.6097
 5209SOL     OW20607   4.436   2.500   4.225 -0.5493  0.0457 -0.3079
 5209SOL    HW220608   4.502   2.566   4.247 -0.4735 -0.0129 -0.3569
 5209SOL    HW320609   4.488   2.423   4.200 -0.6284  0.2451 -1.1129
 5209SOL    MW420610   4.452   2.498   4.224  0.8104  0.0744  0.2107
 5210SOL     OW20611   6.137   6.318   2.976  1.0842 -0.2011  0.2933
 5210SOL    HW220612   6.098   6.402   2.951  2.9683  1.1393  1.5414
 5210SOL    HW320613   6.128   6.316   3.071  0.3481 -1.8248  0.2082
 5210SOL    MW420614   6.131   6.329   2.985  0.0211 -0.0568  0.7833
 5211SOL     OW20615   1.102   1.227   2.774 -0.4854  0.4958 -0.6154
 5211SOL    HW220616   1.156   1.215   2.852  0.7702  2.3061 -1.1475
 5211SOL    HW320617   1.019   1.262   2.808 -0.3011  0.3805 -0.0265
 5211SOL    MW420618   1.098   1.230   2.789 -0.2477  0.4139 -1.0097
 5212SOL     OW20619   1.850   1.739   4.588  0.0839  0.2376 -0.3519
 5212SOL    HW220620   1.757   1.728   4.573 -0.2297  2.4475 -0.4074
 5212SOL    HW320621   1.876   1.664   4.641 -2.0870  0.4310  1.0927
 5212SOL    MW420622   1.841   1.728   4.593  0.2945  0.4620 -0.0399
 5213SOL     OW20623   2.583   4.720   6.343  0.0118  0.7374 -0.5057
 5213SOL    HW220624   2.566   4.691   6.254  1.3146  0.4648 -0.6859
 5213SOL    HW320625   2.542   4.654   6.399  0.3467  0.1912 -0.9047
 5213SOL    MW420626   2.575   4.708   6.339 -0.4393  0.0573 -0.0931
 5214SOL     OW20627   5.367   3.729   1.603 -0.5614  0.2682 -0.3363
 5214SOL    HW220628   5.295   3.667   1.599 -1.3563  1.2165 -1.2642
 5214SOL    HW320629   5.385   3.752   1.512 -0.3934  1.5153 -0.0119
 5214SOL    MW420630   5.360   3.724   1.590  0.5159 -0.4398 -0.2711
 5215SOL     OW20631   1.424   0.445   2.354  0.6392 -0.3900  0.1444
 5215SOL    HW220632   1.343   0.451   2.304  0.4296 -1.2737  0.3630
 5215SOL    HW320633   1.478   0.517   2.320 -0.7360  1.1164  0.9577
 5215SOL    MW420634   1.420   0.456   2.343 -0.4867 -0.0123  0.1626
 5216SOL     OW20635   0.193   2.392   0.748  0.3436  0.0944  0.3873
 5216SOL    HW220636   0.223   2.415   0.660 -0.1428 -0.5082  0.0615
 5216SOL    HW320637   0.200   2.297   0.753  0.2655  0.1120  0.9634
 5216SOL    MW420638   0.198   2.383   0.737 -0.3708 -0.1532  0.2716
 5217SOL     OW20639   1.375   0.718   3.369 -0.1222  0.1252 -0.7229
 5217SOL    HW220640   1.298   0.743   3.420 -0.7334 -0.7692 -1.1774
 5217SOL    HW320641   1.450   0.743   3.424 -0.7582 -0.2552  0.3427
 5217SOL    MW420642   1.375   0.724   3.383  0.2581 -0.0197 -0.1088
 5218SOL     OW20643   5.275   3.594   1.122 -0.1066 -0.3726  0.0456
 5218SOL    HW220644   5.351   3.538   1.139 -1.4628 -2.9241 -1.6726
 5218SOL    HW320645   5.311   3.668   1.073  1.4961 -0.6918  0.6814
 5218SOL    MW420646   5.290   3.596   1.118  0.0569 -0.2050  0.6357
 5219SOL     OW20647   4.232   2.383   5.962 -0.1190 -0.3625  0.8236
 5219SOL    HW220648   4.138   2.382   5.947  0.0917 -0.1669 -0.7297
 5219SOL    HW320649   4.270   2.365   5.876  1.3219  2.8345  0.6422
 5219SOL    MW420650   4.225   2.380   5.949  0.0250 -0.0558  0.7893
 5220SOL     OW20651   5.012   0.727   1.721 -0.2393  0.1549  0.0317
 5220SOL    HW220652   4.985   0.808   1.678 -0.2256  1.0661  1.6655
 5220SOL    HW320653   5.100   0.710   1.686 -0.1118  1.0188 -0.0955
 5220SOL    MW420654   5.020   0.735   1.710 -0.6724 -0.6680  0.3824
 5221SOL     OW20655   5.141   4.835   3.896  0.2505 -0.6983  0.0319
 5221SOL    HW220656   5.174   4.815   3.983 -0.4122 -0.9683  0.2244
 5221SOL    HW320657   5.134   4.750   3.852 -0.0865 -0.6354 -0.0397
 5221SOL    MW420658   5.145   4.821   3.901 -0.1639 -0.0831 -0.3050
 5222SOL     OW20659   2.590   3.347   1.452 -0.1896  0.4321 -0.4774
 5222SOL    HW220660   2.495   3.345   1.466 -0.0054  0.8828  1.1017
 5222SOL    HW320661   2.611   3.439   1.438  0.0992  0.4445 -0.0025
 5222SOL    MW420662   2.580   3.359   1.452  0.4630 -0.6919 -0.2774
 5223SOL     OW20663   6.337   3.086   4.592 -0.1288 -0.0718  0.4131
 5223SOL    HW220664   6.431   3.093   4.580  0.2817 -0.6888  2.6742
 5223SOL    HW320665   6.322   3.115   4.682 -1.8564 -1.5564  0.6709
 5223SOL    MW420666   6.347   3.091   4.602  0.0092 -0.3905  0.4446
 5224SOL     OW20667   0.062   4.281   2.622 -0.2221 -0.1594 -0.0828
 5224SOL    HW220668   0.009   4.255   2.697 -2.1126 -1.2236 -1.6904
 5224SOL    HW320669   0.080   4.374   2.637 -0.0250 -0.4826  1.9466
 5224SOL    MW420670   0.058   4.290   2.634  0.3217 -0.1834  0.1122
 5225SOL     OW20671   2.055   4.104   5.779  0.2593 -0.1891 -0.2914
 5225SOL    HW220672   2.054   4.178   5.840 -0.2243 -0.6893  0.3109
 5225SOL    HW320673   2.005   4.035   5.822 -1.1954 -0.1373 -1.7872
 5225SOL    MW420674   2.048   4.105   5.793 -0.4397  0.0627 -0.1469
 5226SOL     OW20675   5.969   1.182   4.062  0.1406 -0.4163  0.5305
 5226SOL    HW220676   5.999   1.107   4.011  1.8041  0.0927  0.6861
 5226SOL    HW320677   6.040   1.200   4.124  0.6159  2.2739 -0.6157
 5226SOL    MW420678   5.982   1.175   4.063  0.4655 -0.1926 -0.4957
 5227SOL     OW20679   4.074   1.822   6.016  0.4331  0.6818 -0.0498
 5227SOL    HW220680   4.121   1.819   5.933  0.4261 -2.0197 -0.0452
 5227SOL    HW320681   3.981   1.815   5.991  0.4219  0.0176  0.1575
 5227SOL    MW420682   4.068   1.820   6.002  0.0985 -0.2078  0.5053
 5228SOL     OW20683   0.133   4.164   3.407  0.1240  0.0242 -0.4255
 5228SOL    HW220684   0.223   4.198   3.413  1.2498 -2.6477 -0.7411
 5228SOL    HW320685   0.115   4.131   3.495 -0.5911  0.6091 -0.3497
 5228SOL    MW420686   0.143   4.164   3.420 -0.0305  0.3999 -0.1118
 5229SOL     OW20687   3.599   5.091   1.707 -0.1204  0.0137 -0.2494
 5229SOL    HW220688   3.643   5.006   1.704  0.1486 -0.0159  2.6560
 5229SOL    HW320689   3.659   5.148   1.753 -1.7722  0.8235  0.9953
 5229SOL    MW420690   3.612   5.087   1.712 -0.0547 -0.0594 -0.2866
 5230SOL     OW20691   0.678   0.688   3.982 -0.1088  0.2082  0.4459
 5230SOL    HW220692   0.596   0.639   3.978  1.3857 -2.4407 -1.8250
 5230SOL    HW320693   0.741   0.625   4.017  1.6100  0.9134 -1.1829
 5230SOL    MW420694   0.675   0.673   3.986 -0.4728 -0.5960  0.0424
 5231SOL     OW20695   4.524   2.956   4.374  0.9179  0.3727 -0.1495
 5231SOL    HW220696   4.441   2.986   4.337 -1.1916  0.8498  4.2798
 5231SOL    HW320697   4.559   3.032   4.420  1.4207 -0.9402  1.7586
 5231SOL    MW420698   4.518   2.970   4.376  0.0993  0.0007 -0.3270
 5232SOL     OW20699   4.925   4.423   3.749  0.2681 -0.2333 -0.1213
 5232SOL    HW220700   4.913   4.342   3.798 -2.3579 -0.7009 -1.3396
 5232SOL    HW320701   4.877   4.409   3.667  0.6909  2.1339 -0.8609
 5232SOL    MW420702   4.917   4.410   3.744  0.2450 -0.0078  0.3357
 5233SOL     OW20703   1.729   5.573   1.548 -0.0601 -0.2302 -1.2482
 5233SOL    HW220704   1.746   5.523   1.628  0.1338 -1.0250 -1.7687
 5233SOL    HW320705   1.663   5.636   1.573 -0.3289 -0.7646 -0.5655
 5233SOL    MW420706   1.723   5.574   1.562  0.6688 -0.1866 -0.3751
 5234SOL     OW20707   4.818   1.926   1.941 -0.3648 -0.0814 -0.1223
 5234SOL    HW220708   4.806   1.873   1.862 -1.3053  1.0654 -0.7935
 5234SOL    HW320709   4.746   1.901   1.998 -0.3845 -0.0557 -0.1355
 5234SOL    MW420710   4.807   1.916   1.938 -0.4964 -0.9480  0.3577
 5235SOL     OW20711   0.579   1.447   4.939  0.3481 -0.6818  0.3319
 5235SOL    HW220712   0.504   1.437   4.881  1.4270  1.7932 -1.7217
 5235SOL    HW320713   0.544   1.493   5.015 -0.8053 -2.5889  1.0020
 5235SOL    MW420714   0.565   1.452   4.941 -0.2951 -0.0718 -0.1703
 5236SOL     OW20715   1.123  -0.013   1.670  0.2629  0.1917  0.0534
 5236SOL    HW220716   1.172   0.062   1.634 -0.9108  1.3613  0.7928
 5236SOL    HW320717   1.180  -0.048   1.739 -0.7022  2.8964  2.4293
 5236SOL    MW420718   1.137  -0.007   1.675  0.0167  0.1765 -0.1541
 5237SOL     OW20719   0.448   4.338   4.374  0.2120  0.2833  0.0334
 5237SOL    HW220720   0.383   4.346   4.304  0.4988 -0.0374 -0.2751
 5237SOL    HW320721   0.428   4.255   4.416 -0.7066  1.0257  1.1103
 5237SOL    MW420722   0.437   4.328   4.370 -0.3517  0.3655  0.7707
 5238SOL     OW20723   4.012   3.648   1.954 -0.2875  0.1122 -0.2878
 5238SOL    HW220724   4.060   3.729   1.936 -0.1253  0.0670 -0.0710
 5238SOL    HW320725   4.026   3.594   1.877 -0.3352  0.2634 -0.4022
 5238SOL    MW420726   4.020   3.652   1.942 -0.3882 -0.1081  0.1765
 5239SOL     OW20727   4.057   3.509   1.716 -0.1435  0.1184  0.1091
 5239SOL    HW220728   4.015   3.562   1.648  0.2211 -1.7801 -1.6909
 5239SOL    HW320729   3.993   3.442   1.738 -0.4407  0.9744  2.0687
 5239SOL    MW420730   4.043   3.508   1.710 -0.8950  0.0083  0.1058
 5240SOL     OW20731   1.038   3.655   4.537  0.2869 -0.5418  0.0814
 5240SOL    HW220732   1.110   3.602   4.570  0.2178 -0.1659  0.8472
 5240SOL    HW320733   0.998   3.693   4.615 -0.7372 -0.7392 -0.3280
 5240SOL    MW420734   1.042   3.653   4.552 -0.3043  0.0971  0.3749
 5241SOL     OW20735   2.324   5.578   4.135  0.4287 -0.5083 -0.5587
 5241SOL    HW220736   2.334   5.491   4.174  0.5984 -0.1575  0.1983
 5241SOL    HW320737   2.407   5.623   4.154  0.3462 -0.1793 -0.9530
 5241SOL    MW420738   2.336   5.573   4.143  0.2137 -0.1407 -0.2165
 5242SOL     OW20739   3.782   6.344   3.949  0.1166 -0.2421  0.0649
 5242SOL    HW220740   3.703   6.307   3.989  1.1183  0.3018  2.7960
 5242SOL    HW320741   3.769   6.332   3.855 -2.1922 -2.1902  0.5202
 5242SOL    MW420742   3.770   6.337   3.942 -0.6095  0.3486  0.3281
 5243SOL     OW20743   6.117   0.947   6.369 -0.6916 -0.0814 -0.0867
 5243SOL    HW220744   6.150   0.947   6.279  0.6020 -0.9241  0.3720
 5243SOL    HW320745   6.031   0.906   6.362  0.9494 -3.8410 -0.4486
 5243SOL    MW420746   6.110   0.942   6.356 -0.4768 -0.3459  0.0837
 5244SOL     OW20747   1.759   0.965   4.132 -0.1938  0.6857 -0.3976
 5244SOL    HW220748   1.847   0.972   4.170  0.1298  0.3211 -1.0724
 5244SOL    HW320749   1.709   1.034   4.176  0.1531  0.2332  0.7521
 5244SOL    MW420750   1.764   0.975   4.143  0.9742 -0.0660 -0.1466
 5245SOL     OW20751   5.150   3.403   1.291 -0.1675 -0.3069 -0.2391
 5245SOL    HW220752   5.190   3.469   1.234  0.2388 -1.6174 -1.5427
 5245SOL    HW320753   5.112   3.454   1.363  3.5875  1.1010  1.0361
 5245SOL    MW420754   5.150   3.419   1.293 -0.0543  0.3794  0.4772
 5246SOL     OW20755   5.356   3.265   2.886 -0.6958 -0.8216  0.2561
 5246SOL    HW220756   5.360   3.211   2.807  1.9831 -2.1973  1.2369
 5246SOL    HW320757   5.282   3.229   2.935 -2.9297  0.5663 -1.8520
 5246SOL    MW420758   5.346   3.253   2.882 -0.1373  0.0921 -0.3289
 5247SOL     OW20759   4.215   4.972   5.083 -0.1617 -0.2657  0.5871
 5247SOL    HW220760   4.204   5.063   5.059  0.5257  0.2602  2.1032
 5247SOL    HW320761   4.142   4.926   5.042  0.3060  0.6976 -1.4214
 5247SOL    MW420762   4.204   4.978   5.074 -0.3989 -0.0151  0.1465
 5248SOL     OW20763   0.373   5.557   3.912 -0.1799 -0.0792 -0.2862
 5248SOL    HW220764   0.427   5.537   3.989 -2.2036  0.5919  1.4039
 5248SOL    HW320765   0.293   5.506   3.925 -0.3138 -0.4812 -2.3467
 5248SOL    MW420766   0.370   5.548   3.924  0.2936 -0.1437 -0.4707
 5249SOL     OW20767   2.595   5.176   3.908 -0.3252  0.2666  0.5103
 5249SOL    HW220768   2.564   5.247   3.852 -0.2973 -0.3128 -0.2600
 5249SOL    HW320769   2.688   5.193   3.919  0.3101 -1.0598 -1.9179
 5249SOL    MW420770   2.603   5.187   3.902  0.0367  0.9672  1.0843
 5250SOL     OW20771   5.259   2.093   4.559 -0.8026  0.0975 -0.3540
 5250SOL    HW220772   5.342   2.114   4.601  0.2297  0.7651 -2.5835
 5250SOL    HW320773   5.216   2.033   4.619  0.7714  0.6468  1.3968
 5250SOL    MW420774   5.264   2.088   4.572  0.4112  0.0224  0.8194
 5251SOL     OW20775   3.497   5.407   1.761  0.3503 -0.3097  0.2690
 5251SOL    HW220776   3.525   5.460   1.687  2.2392  0.4808  1.4743
 5251SOL    HW320777   3.569   5.347   1.778  0.6588  0.5638  2.3801
 5251SOL    MW420778   3.510   5.406   1.754  0.3843 -0.2104  0.1492
 5252SOL     OW20779   3.218   1.996   1.672 -0.1193  0.1604 -0.3387
 5252SOL    HW220780   3.220   2.005   1.577  2.2372 -2.1187 -0.6093
 5252SOL    HW320781   3.254   2.078   1.705  1.1313  0.1174 -1.5349
 5252SOL    MW420782   3.223   2.008   1.664  0.2108 -0.7712 -0.3855
 5253SOL     OW20783   5.336   4.889   2.835  0.2432  0.2536 -0.3830
 5253SOL    HW220784   5.252   4.923   2.804 -0.5004  0.7746  2.0287
 5253SOL    HW320785   5.387   4.967   2.857  0.3815 -0.0975  0.5721
 5253SOL    MW420786   5.332   4.904   2.834 -0.2820  0.3402 -0.0128
 5254SOL     OW20787   1.338   3.394   6.151  0.4650  0.0252 -0.0135
 5254SOL    HW220788   1.427   3.363   6.137  1.3788  1.4399  2.0945
 5254SOL    HW320789   1.342   3.488   6.137 -0.6342  0.1500  0.3856
 5254SOL    MW420790   1.350   3.402   6.148 -0.1296 -0.9273 -0.3191
 5255SOL     OW20791   6.039   5.493   3.068  0.3210 -0.1444  0.2430
 5255SOL    HW220792   6.111   5.432   3.053  0.1459 -0.1997 -0.3985
 5255SOL    HW320793   5.969   5.462   3.010 -0.6549 -0.7996  1.7053
 5255SOL    MW420794   6.040   5.481   3.058  0.2605  0.5230 -0.4505
 5256SOL     OW20795   4.411   0.789   5.175  0.1390  0.1471 -0.0061
 5256SOL    HW220796   4.461   0.840   5.239  0.6254  0.7081 -0.8164
 5256SOL    HW320797   4.467   0.713   5.156  1.5650  1.6293 -2.2035
 5256SOL    MW420798   4.425   0.786   5.181  0.4204 -0.0728  0.1993
 5257SOL     OW20799   0.515   1.516   0.318  0.2925  0.2120 -0.2143
 5257SOL    HW220800   0.591   1.528   0.261 -0.1386  1.5509 -0.5555
 5257SOL    HW320801   0.450   1.578   0.284 -1.2802 -1.5037 -0.4793
 5257SOL    MW420802   0.516   1.526   0.306  0.2606 -0.1976  0.2595
 5258SOL     OW20803   6.185   2.889   0.094  0.6631 -0.2319 -0.8595
 5258SOL    HW220804   6.182   2.945   0.171  2.2720  0.1707 -1.0655
 5258SOL    HW320805   6.222   2.943   0.025  2.4041 -1.5454 -1.0272
 5258SOL    MW420806   6.190   2.903   0.095 -0.8011 -0.4422  0.1349
 5259SOL     OW20807   5.828   6.360   2.873  0.8113 -0.0664  0.1948
 5259SOL    HW220808   5.861   6.333   2.787  0.9652  0.1614  0.1813
 5259SOL    HW320809   5.836   6.282   2.927 -0.4093 -0.5647 -0.3100
 5259SOL    MW420810   5.834   6.346   2.869  0.2257  0.1226  0.0818
 5260SOL     OW20811   2.393   2.078   4.937 -0.2345 -0.2774 -0.8127
 5260SOL    HW220812   2.349   2.144   4.883  0.0279  2.9151  2.4916
 5260SOL    HW320813   2.321   2.033   4.981 -0.3601 -0.7910 -1.5273
 5260SOL    MW420814   2.378   2.081   4.936 -0.5137 -0.0975 -0.2270
 5261SOL     OW20815   3.024   0.232   1.653  0.7071  0.0939  0.3803
 5261SOL    HW220816   2.977   0.269   1.728 -1.7460  0.5641 -1.3005
 5261SOL    HW320817   3.041   0.307   1.596  1.3710 -0.4625 -0.1710
 5261SOL    MW420818   3.020   0.247   1.656 -0.1882 -0.3288 -0.2441
 5262SOL     OW20819   6.418   1.760   3.973 -0.0242  0.3450  0.4042
 5262SOL    HW220820   6.441   1.853   3.974  0.0670  0.3239  1.2030
 5262SOL    HW320821   6.489   1.717   3.927  0.1636  0.6194  0.4392
 5262SOL    MW420822   6.430   1.767   3.967 -0.4142 -0.0750  0.0263
 5263SOL     OW20823   1.955   5.236   3.357 -0.0437  0.4433  0.2442
 5263SOL    HW220824   1.936   5.167   3.421 -0.4548 -0.9906 -1.3471
 5263SOL    HW320825   1.879   5.294   3.361 -0.3723 -0.0041  0.5962
 5263SOL    MW420826   1.943   5.234   3.366 -0.5648  0.0178  0.0771
 5264SOL     OW20827   4.781   6.048   4.663  0.5450 -0.6813  0.2205
 5264SOL    HW220828   4.726   5.983   4.706  0.1484 -0.7887 -0.4347
 5264SOL    HW320829   4.722   6.121   4.643  0.8107 -0.4619  0.2206
 5264SOL    MW420830   4.766   6.049   4.666  0.1392  0.1482 -0.5014
 5265SOL     OW20831   4.674   5.988   0.035  0.3841 -0.2545 -0.2459
 5265SOL    HW220832   4.688   5.896   0.058  0.4146 -0.2309 -0.1679
 5265SOL    HW320833   4.759   6.018   0.003  0.2562 -0.3755 -0.6960
 5265SOL    MW420834   4.687   5.979   0.034 -1.0558  0.5547 -0.3663
 5266SOL     OW20835   3.505   4.118   1.950  0.2261  0.1532 -0.3212
 5266SOL    HW220836   3.479   4.193   1.895  1.7205  1.3579  0.5622
 5266SOL    HW320837   3.433   4.056   1.939 -1.2596  1.8562 -0.7903
 5266SOL    MW420838   3.492   4.120   1.941  0.4593  0.3823 -0.7277
 5267SOL     OW20839   4.204   3.460   3.798 -0.0541 -0.3456  0.0815
 5267SOL    HW220840   4.160   3.424   3.875  0.6134  0.0179  0.6488
 5267SOL    HW320841   4.191   3.395   3.730 -0.6352 -0.6832  0.5080
 5267SOL    MW420842   4.197   3.447   3.799  0.1632 -0.4069  0.0569
 5268SOL     OW20843   5.953   3.042   0.652  0.1270 -0.2100 -0.1822
 5268SOL    HW220844   5.956   3.038   0.557  3.5144  2.1249 -0.3670
 5268SOL    HW320845   5.992   2.960   0.681  1.0630 -0.0590 -0.9530
 5268SOL    MW420846   5.958   3.031   0.643  0.2036 -0.4334 -0.1465
 5269SOL     OW20847   3.743   5.066   1.048  0.1127  0.4393  0.1367
 5269SOL    HW220848   3.738   5.011   0.969 -2.6787  0.3047  0.3051
 5269SOL    HW320849   3.833   5.057   1.077  0.9375 -0.4466 -2.3776
 5269SOL    MW420850   3.754   5.057   1.041  0.3501  0.3210  0.0321
 5270SOL     OW20851   6.233   0.468   5.131  0.3981  0.0674 -0.5153
 5270SOL    HW220852   6.147   0.507   5.116  0.1876  0.4267  1.4032
 5270SOL    HW320853   6.295   0.537   5.105  0.0539  0.6308  0.1049
 5270SOL    MW420854   6.230   0.483   5.126 -0.1341 -0.0392  0.0474
 5271SOL     OW20855   5.199   5.437   5.075  0.2868  0.8114 -0.4524
 5271SOL    HW220856   5.285   5.400   5.097 -0.8006 -3.1643 -2.0415
 5271SOL    HW320857   5.152   5.438   5.158  1.0556  0.6664 -0.0028
 5271SOL    MW420858   5.204   5.432   5.089 -0.2093 -0.0335  0.3875
 5272SOL     OW20859   0.195   3.455   5.503  0.9421 -0.2040 -0.0830
 5272SOL    HW220860   0.163   3.366   5.488  1.3315 -0.3064 -0.3235
 5272SOL    HW320861   0.247   3.475   5.425 -0.0777  0.6662 -0.5677
 5272SOL    MW420862   0.198   3.446   5.491  0.5180  0.2702  0.3925
 5273SOL     OW20863   3.465   4.189   1.142  0.1655  0.8874  0.3249
 5273SOL    HW220864   3.479   4.152   1.229 -4.5441 -2.6823 -0.0420
 5273SOL    HW320865   3.496   4.121   1.082 -0.3013  1.5210 -0.6539
 5273SOL    MW420866   3.471   4.175   1.146 -0.0156 -0.6221  0.2056
 5274SOL     OW20867   0.004   5.665   1.367  0.0528  0.1639  0.2712
 5274SOL    HW220868  -0.064   5.659   1.300 -1.2952  1.4680  1.4370
 5274SOL    HW320869  -0.029   5.731   1.428  2.7017  1.3737  0.5432
 5274SOL    MW420870  -0.010   5.673   1.366  0.0628  0.3455 -0.4002
 5275SOL     OW20871   3.877   0.288   2.767  0.1030  0.4099  0.1067
 5275SOL    HW220872   3.880   0.198   2.735 -1.8513  0.9019 -1.6245
 5275SOL    HW320873   3.967   0.320   2.756  1.3858 -1.8710  2.7053
 5275SOL    MW420874   3.890   0.281   2.762  0.0317 -0.0472 -0.0067
 5276SOL     OW20875   0.897   5.945   5.297  0.1352  0.8931 -0.2185
 5276SOL    HW220876   0.964   6.009   5.321  0.6914  0.1633  0.2300
 5276SOL    HW320877   0.842   5.938   5.374  0.4146  0.4153 -0.0598
 5276SOL    MW420878   0.898   5.953   5.310  0.5186 -0.2817  0.5606
 5277SOL     OW20879   2.981   4.111   2.319  0.2954  0.0678  0.0494
 5277SOL    HW220880   3.042   4.114   2.393  0.0821 -0.4648  0.2533
 5277SOL    HW320881   2.914   4.048   2.346  0.4044 -0.3972 -0.7361
 5277SOL    MW420882   2.980   4.103   2.333 -0.4449  0.0680  0.6663
 5278SOL     OW20883   3.722   0.608   5.628  0.3374 -0.3109  0.4841
 5278SOL    HW220884   3.691   0.686   5.674  1.0185  0.1685  0.1299
 5278SOL    HW320885   3.773   0.560   5.694  0.6130 -0.0438  0.4654
 5278SOL    MW420886   3.724   0.612   5.643 -0.0839 -0.2517  0.0163
 5279SOL     OW20887   0.468   5.512   1.768 -0.4107  0.0438  0.3648
 5279SOL    HW220888   0.475   5.607   1.778 -0.9189  0.0308  0.8984
 5279SOL    HW320889   0.482   5.478   1.856  0.7079 -0.4427  0.0224
 5279SOL    MW420890   0.471   5.520   1.781  1.0103  0.2987  0.0058
 5280SOL     OW20891   6.220   2.092   2.359 -0.0640  0.5251 -0.2646
 5280SOL    HW220892   6.170   2.067   2.437 -0.7180  0.6315 -0.6456
 5280SOL    HW320893   6.240   2.184   2.372 -0.0943  0.5199 -0.1808
 5280SOL    MW420894   6.216   2.101   2.371 -0.2405  0.2232 -0.1623
 5281SOL     OW20895   3.233   4.366   1.148 -0.2958  0.6633  0.2376
 5281SOL    HW220896   3.207   4.315   1.225  0.1321 -1.6005 -1.0557
 5281SOL    HW320897   3.323   4.339   1.130  0.0180  2.0411 -0.3882
 5281SOL    MW420898   3.241   4.356   1.156 -0.1571  0.1522  0.2456
 5282SOL     OW20899   6.292   5.517   0.284 -1.0654 -0.2753 -0.4226
 5282SOL    HW220900   6.334   5.457   0.345 -1.0043  1.2879  1.1741
 5282SOL    HW320901   6.265   5.591   0.339 -0.8785  1.2752 -2.3282
 5282SOL    MW420902   6.294   5.519   0.300 -0.5552  0.0847  0.2062
 5283SOL     OW20903   2.509   3.462   5.010  0.4690  0.1699  0.3801
 5283SOL    HW220904   2.577   3.530   5.012 -1.6238  2.5908 -1.9320
 5283SOL    HW320905   2.549   3.390   4.962  1.6958  1.2193 -0.2580
 5283SOL    MW420906   2.523   3.462   5.004  0.5398  0.0049 -0.1290
 5284SOL     OW20907   4.891   6.079   5.517 -0.0275 -0.3362 -0.2032
 5284SOL    HW220908   4.838   6.158   5.522 -0.8751 -0.9655  2.4263
 5284SOL    HW320909   4.979   6.109   5.493  0.0116  1.6320  2.0438
 5284SOL    MW420910   4.896   6.093   5.515  0.3211 -0.3699 -0.4034
 5285SOL     OW20911   0.567   2.123   3.959  0.6486  0.1145 -0.0281
 5285SOL    HW220912   0.481   2.085   3.942  0.2356  0.0590  1.9194
 5285SOL    HW320913   0.580   2.187   3.889  0.0846 -1.5184 -1.7151
 5285SOL    MW420914   0.557   2.126   3.948 -0.2413  0.3279  0.3153
 5286SOL     OW20915   2.994   2.262   5.796  0.5166  0.6540 -0.5192
 5286SOL    HW220916   2.963   2.185   5.749  0.5517  1.1622 -1.3884
 5286SOL    HW320917   2.916   2.299   5.836  0.4644  0.3048 -0.2951
 5286SOL    MW420918   2.980   2.257   5.795 -0.2809 -0.1482 -0.2863
 5287SOL     OW20919   3.729   2.313   3.748 -0.7906  0.2705  0.0783
 5287SOL    HW220920   3.792   2.242   3.756 -1.2029 -0.0135  0.9373
 5287SOL    HW320921   3.728   2.354   3.835 -2.8144 -0.6149  0.5289
 5287SOL    MW420922   3.737   2.309   3.760  0.3609  0.2153 -1.0116
 5288SOL     OW20923   3.693   2.001   3.940 -0.4115  0.2599 -0.0640
 5288SOL    HW220924   3.710   1.927   3.998 -4.2383 -0.3673  0.5516
 5288SOL    HW320925   3.718   2.078   3.991 -0.3514 -0.4472  1.0042
 5288SOL    MW420926   3.698   2.001   3.954  0.4061 -0.6309  0.2530
 5289SOL     OW20927   0.513   0.063   2.054  0.1578 -0.1352 -0.3746
 5289SOL    HW220928   0.471   0.063   2.140 -1.0096 -1.7391 -0.8970
 5289SOL    HW320929   0.579  -0.006   2.060  1.9718  1.5359  0.0346
 5289SOL    MW420930   0.517   0.054   2.066 -0.1967  0.8019 -0.1791
 5290SOL     OW20931   5.406   4.995   1.544 -0.0399 -0.8313  0.7224
 5290SOL    HW220932   5.370   5.053   1.610  0.8704 -0.7674  1.1829
 5290SOL    HW320933   5.497   5.025   1.533  0.6849 -2.5765  1.4940
 5290SOL    MW420934   5.413   5.006   1.551  0.0081 -0.1908  0.6284
 5291SOL     OW20935   0.020   4.118   5.334  0.6666 -0.0901  0.7196
 5291SOL    HW220936  -0.072   4.138   5.317  0.8998 -0.3064 -1.0069
 5291SOL    HW320937   0.056   4.199   5.371 -0.3928 -0.2928  2.2893
 5291SOL    MW420938   0.012   4.131   5.336 -0.5418  0.3644  0.5221
 5292SOL     OW20939   5.748   2.662   1.221 -0.6203 -0.5885 -0.5618
 5292SOL    HW220940   5.837   2.680   1.191 -0.2700 -0.8154  0.2976
 5292SOL    HW320941   5.693   2.727   1.176 -0.1226 -0.8712 -1.6024
 5292SOL    MW420942   5.752   2.673   1.211 -0.6895  0.1262  0.2371
 5293SOL     OW20943   4.946   1.615   3.479 -0.3059 -0.4445 -0.1085
 5293SOL    HW220944   4.942   1.691   3.420 -1.3850  0.6565  1.2907
 5293SOL    HW320945   5.039   1.598   3.491 -0.0529 -0.8163 -2.2290
 5293SOL    MW420946   4.957   1.623   3.473  0.5511 -0.1767  0.3802
 5294SOL     OW20947   2.269   1.461   4.576 -0.7848 -0.1590 -0.0969
 5294SOL    HW220948   2.279   1.556   4.588  0.2609 -0.3870  1.1102
 5294SOL    HW320949   2.358   1.429   4.561 -0.9663 -1.0747  0.6462
 5294SOL    MW420950   2.282   1.469   4.576  0.0024 -0.7735 -0.0929
 5295SOL     OW20951   6.112   6.325   5.252  0.1493  0.4527 -0.4158
 5295SOL    HW220952   6.071   6.294   5.333  2.2261 -1.4666  0.0089
 5295SOL    HW320953   6.151   6.409   5.276 -0.0791  0.3580  0.3071
 5295SOL    MW420954   6.112   6.332   5.266  0.2019 -0.8405 -0.2715
 5296SOL     OW20955   1.931   4.990   3.506  0.5730  0.0907  0.0749
 5296SOL    HW220956   1.977   4.936   3.441  0.3534 -1.0160  0.8086
 5296SOL    HW320957   1.840   4.960   3.501  0.6888 -0.5649  1.4161
 5296SOL    MW420958   1.925   4.979   3.497 -0.1839 -0.1831 -0.3634
 5297SOL     OW20959   4.211   0.689   4.756  0.6002 -0.0614 -0.5086
 5297SOL    HW220960   4.255   0.760   4.803  2.0793  0.6043 -2.7258
 5297SOL    HW320961   4.278   0.621   4.748 -0.3342 -1.1223  0.2507
 5297SOL    MW420962   4.226   0.689   4.761 -0.0481  0.0928 -0.1524
 5298SOL     OW20963   5.590   0.624   4.066 -0.3138  0.2887 -0.2832
 5298SOL    HW220964   5.575   0.536   4.100  1.0347  0.2071  0.1596
 5298SOL    HW320965   5.507   0.669   4.080 -0.9523 -0.8380 -0.3119
 5298SOL    MW420966   5.577   0.618   4.072 -0.0259  0.8248 -0.0789
 5299SOL     OW20967   1.500   5.745   5.891  0.3116  0.2770 -0.3723
 5299SOL    HW220968   1.503   5.767   5.798 -0.4367  1.1830 -0.1891
 5299SOL    HW320969   1.592   5.738   5.916  0.5297  0.5553 -1.0651
 5299SOL    MW420970   1.513   5.747   5.882  0.1045 -0.0496 -0.3997
 5300SOL     OW20971   3.736   5.163   0.272 -0.4790 -0.1294  0.1209
 5300SOL    HW220972   3.720   5.235   0.333  0.9886  0.1402  0.2164
 5300SOL    HW320973   3.806   5.194   0.215  0.2883 -1.5179  0.2553
 5300SOL    MW420974   3.743   5.176   0.273  0.3334  0.0568 -0.0666
 5301SOL     OW20975   4.065   0.017   2.862 -0.2640 -0.4937 -0.3537
 5301SOL    HW220976   4.131   0.072   2.821  0.3234 -1.6548 -1.0254
 5301SOL    HW320977   4.054   0.054   2.950 -0.2579  0.9666 -0.9389
 5301SOL    MW420978   4.072   0.029   2.868  0.7308 -0.4859  0.3919
 5302SOL     OW20979   5.813   1.255   2.099  0.2454  0.3775  0.3241
 5302SOL    HW220980   5.794   1.337   2.052  1.2587  0.1665 -0.5068
 5302SOL    HW320981   5.728   1.222   2.125 -0.1940  1.6790  0.6369
 5302SOL    MW420982   5.800   1.262   2.096 -0.1027 -0.6809  0.3687
 5303SOL     OW20983   2.810   4.674   2.730 -0.1801  0.0896 -0.8987
 5303SOL    HW220984   2.870   4.684   2.804 -1.4770  1.2920  0.0536
 5303SOL    HW320985   2.839   4.594   2.686 -1.7367 -3.0907  3.1828
 5303SOL    MW420986   2.822   4.665   2.734 -0.0326  0.1488  0.8000
 5304SOL     OW20987   5.565   0.670   0.037  0.2789 -0.5881  0.3206
 5304SOL    HW220988   5.603   0.611  -0.028 -1.3202 -0.7836 -0.4859
 5304SOL    HW320989   5.479   0.632   0.056 -0.3388  0.8813  0.5887
 5304SOL    MW420990   5.558   0.657   0.031 -0.4632 -0.0893 -0.7551
 5305SOL     OW20991   6.380   2.348   4.964 -0.4632 -0.3534 -0.5361
 5305SOL    HW220992   6.398   2.440   4.986 -2.0957 -0.0771 -0.2109
 5305SOL    HW320993   6.311   2.322   5.026 -1.8320 -1.0024 -2.2402
 5305SOL    MW420994   6.373   2.357   4.975 -0.3877  0.1268 -0.1677
 5306SOL     OW20995   3.627   4.875   3.514  0.0838 -0.2336 -0.5167
 5306SOL    HW220996   3.666   4.943   3.460 -0.0669 -0.5659 -1.0483
 5306SOL    HW320997   3.701   4.824   3.547  0.3034  0.9863  0.9985
 5306SOL    MW420998   3.642   4.877   3.512  0.5153  0.6755  0.0984
 5307SOL     OW20999   0.751   0.837   4.972 -0.0634 -0.0033  0.2108
 5307SOL    HW221000   0.755   0.897   5.046 -0.5057 -0.6019  0.7333
 5307SOL    HW321001   0.661   0.805   4.971  0.2173 -0.8317  0.0916
 5307SOL    MW421002   0.740   0.841   4.981  0.6926  0.1497 -0.1210
 5308SOL     OW21003   3.244   5.527   1.843  0.5077  0.2049 -0.1141
 5308SOL    HW221004   3.325   5.479   1.826 -0.8517 -1.6719 -1.7889
 5308SOL    HW321005   3.175   5.470   1.809 -1.5253  1.7985  1.1215
 5308SOL    MW421006   3.245   5.513   1.836  0.4760  0.3886  0.0532
 5309SOL     OW21007   4.401   3.426   6.235 -0.2117 -0.3949 -0.8530
 5309SOL    HW221008   4.392   3.450   6.327 -1.1287  0.2411 -1.0930
 5309SOL    HW321009   4.374   3.334   6.232  0.1203 -0.5097 -0.4450
 5309SOL    MW421010   4.396   3.417   6.246 -0.3180  0.1161  0.2761
 5310SOL     OW21011   4.462   3.240   2.488 -0.2784 -0.2301 -0.1146
 5310SOL    HW221012   4.433   3.194   2.567  0.0395  0.6552  0.5468
 5310SOL    HW321013   4.382   3.254   2.437 -0.7103  0.3359  0.6890
 5310SOL    MW421014   4.448   3.236   2.492 -0.1726  0.1574  0.0565
 5311SOL     OW21015   0.575   1.591   5.852 -0.5896  0.0645  0.9293
 5311SOL    HW221016   0.598   1.523   5.916  0.0782  1.4283  2.1983
 5311SOL    HW321017   0.659   1.632   5.831 -0.7499 -0.5521 -1.1197
 5311SOL    MW421018   0.589   1.587   5.858  0.5211 -0.1618  0.2425
 5312SOL     OW21019   1.492   5.444   0.465 -0.1634  0.1881  0.2912
 5312SOL    HW221020   1.426   5.464   0.399 -1.7624 -2.4174  0.9200
 5312SOL    HW321021   1.575   5.445   0.418 -0.8683  1.6313 -0.9846
 5312SOL    MW421022   1.494   5.446   0.450 -0.4312  0.8404  0.2499
 5313SOL     OW21023   3.688   3.303   5.556  0.3631  0.4940  0.3219
 5313SOL    HW221024   3.709   3.291   5.649  1.5684 -0.9829 -0.1048
 5313SOL    HW321025   3.592   3.302   5.553  0.2804 -2.3029  1.2641
 5313SOL    MW421026   3.678   3.301   5.568 -0.3426  0.0387  0.2553
 5314SOL     OW21027   6.381   0.453   1.799 -0.1159  0.2258 -0.0210
 5314SOL    HW221028   6.371   0.358   1.796  1.6413 -0.0467  0.9965
 5314SOL    HW321029   6.297   0.485   1.832 -0.2646 -1.1012  0.9628
 5314SOL    MW421030   6.369   0.444   1.803 -0.0727  0.2720 -0.5483
 5315SOL     OW21031   5.710   3.123   0.748  0.1675 -0.0549 -1.0566
 5315SOL    HW221032   5.794   3.091   0.718 -0.0478 -1.3792 -0.3159
 5315SOL    HW321033   5.727   3.213   0.776  0.6366  0.8129 -3.8404
 5315SOL    MW421034   5.723   3.131   0.748  1.4244  0.0712 -0.1717
 5316SOL     OW21035   2.801   3.206   0.277  0.2092  0.1846 -0.7166
 5316SOL    HW221036   2.733   3.221   0.342  1.0195 -0.3544  0.2746
 5316SOL    HW321037   2.830   3.294   0.253  2.4168  0.4741  2.3948
 5316SOL    MW421038   2.796   3.220   0.282 -0.0673  0.1453 -0.5948
 5317SOL     OW21039   4.039   1.848   2.471  0.4142  0.3005 -0.3425
 5317SOL    HW221040   3.949   1.880   2.483  0.6705  0.6474  0.7552
 5317SOL    HW321041   4.085   1.875   2.550  1.5707  0.3749 -1.0168
 5317SOL    MW421042   4.033   1.856   2.483  0.4574  0.3209  0.2114
 5318SOL     OW21043   1.423   4.318   1.669  0.1420  0.1396  0.0922
 5318SOL    HW221044   1.402   4.242   1.614  1.8377  0.2828 -0.8306
 5318SOL    HW321045   1.367   4.308   1.746 -1.7030 -0.5409 -1.2501
 5318SOL    MW421046   1.413   4.306   1.672  0.0635  0.0478  0.2367
 5319SOL     OW21047   1.106   2.532   2.850 -0.0821 -0.3046 -0.4285
 5319SOL    HW221048   1.030   2.495   2.894  0.2193 -0.1748  0.2064
 5319SOL    HW321049   1.085   2.526   2.757 -1.0135  0.0491 -0.2456
 5319SOL    MW421050   1.093   2.526   2.843  0.0117  0.3227 -0.6630
 5320SOL     OW21051   0.382   4.610   0.842 -0.4675  0.2892 -0.1539
 5320SOL    HW221052   0.296   4.646   0.864 -1.7893 -1.6845 -1.7627
 5320SOL    HW321053   0.384   4.525   0.886 -0.2067 -0.5730 -1.7701
 5320SOL    MW421054   0.371   4.603   0.851 -0.0950  0.3048 -0.1020
 5321SOL     OW21055   1.887   5.570   6.339  0.2910  0.2742  0.1118
 5321SOL    HW221056   1.916   5.499   6.281 -0.6048  0.4332 -0.5426
 5321SOL    HW321057   1.914   5.650   6.294 -1.8423  0.4641 -0.9433
 5321SOL    MW421058   1.894   5.571   6.326 -0.1746  0.5397 -0.9917
 5322SOL     OW21059   2.334   5.589   5.527 -0.4510 -0.7661 -0.3765
 5322SOL    HW221060   2.296   5.607   5.613  1.6737 -0.5844  0.5992
 5322SOL    HW321061   2.336   5.674   5.483 -0.3733 -0.6100 -0.0790
 5322SOL    MW421062   2.329   5.602   5.532  0.3232 -0.9411 -0.3540
 5323SOL     OW21063   3.736   2.707   5.062  0.3176 -0.1654  0.2210
 5323SOL    HW221064   3.814   2.657   5.087 -0.5461 -1.3611  0.6304
 5323SOL    HW321065   3.759   2.798   5.079  0.9543 -0.6431  2.2017
 5323SOL    MW421066   3.749   2.712   5.067 -0.1364  0.0798  0.4576
 5324SOL     OW21067   2.379   0.933   6.008 -0.4436 -0.0402 -0.2188
 5324SOL    HW221068   2.342   0.995   6.071 -1.5665 -1.1402  0.2557
 5324SOL    HW321069   2.324   0.941   5.930 -0.6546 -0.4784 -0.1230
 5324SOL    MW421070   2.367   0.942   6.006 -0.2021  0.4908 -0.3965
 5325SOL     OW21071   3.660   6.111   5.717  0.6946  0.1892 -0.2236
 5325SOL    HW221072   3.574   6.141   5.746  1.0392  1.4848 -0.4862
 5325SOL    HW321073   3.671   6.148   5.630  0.9671 -1.1025 -0.7639
 5325SOL    MW421074   3.650   6.120   5.709  0.0017 -0.1946  0.4376
 5326SOL     OW21075   2.442   1.520   2.252  0.1965  0.1810  0.1303
 5326SOL    HW221076   2.456   1.526   2.347 -0.2331  2.8767  0.0930
 5326SOL    HW321077   2.359   1.473   2.243  0.0915  0.1533  1.0992
 5326SOL    MW421078   2.433   1.515   2.263  0.3193 -0.0168  0.5024
 5327SOL     OW21079   2.011   1.077   4.275  0.3981 -0.3203  0.3851
 5327SOL    HW221080   2.049   1.161   4.300  2.0439 -0.8838 -0.0832
 5327SOL    HW321081   2.086   1.025   4.244 -0.3465 -2.3737  1.7793
 5327SOL    MW421082   2.026   1.081   4.274 -0.1404  0.2985 -0.0487
 5328SOL     OW21083   0.155   3.999   0.276 -0.2554  0.0368  0.3741
 5328SOL    HW221084   0.062   3.986   0.292 -0.2202  0.2146  0.7382
 5328SOL    HW321085   0.182   3.922   0.225 -1.0182  0.9281 -1.4786
 5328SOL    MW421086   0.146   3.987   0.271 -0.1703 -0.7284 -0.3384
 5329SOL     OW21087   3.890   0.517   2.291  0.1074  0.1593  0.0562
 5329SOL    HW221088   3.826   0.448   2.305  1.3382 -1.0580 -0.0676
 5329SOL    HW321089   3.937   0.491   2.212  2.2152 -0.2112  1.3435
 5329SOL    MW421090   3.888   0.504   2.283 -0.5838  0.3366 -0.2527
 5330SOL     OW21091   1.657   2.104   4.315  0.3130 -0.3175 -0.3497
 5330SOL    HW221092   1.625   2.016   4.294 -0.0930  0.1593 -1.8714
 5330SOL    HW321093   1.741   2.090   4.359 -0.2685 -1.4894  0.4041
 5330SOL    MW421094   1.664   2.091   4.318 -0.1881  0.0833  0.1168
 5331SOL     OW21095   0.306   5.137   3.414 -0.2381  0.1283  0.0686
 5331SOL    HW221096   0.329   5.223   3.449  0.6868  0.3338 -0.9802
 5331SOL    HW321097   0.213   5.125   3.436 -0.4607  1.5310 -0.0378
 5331SOL    MW421098   0.296   5.147   3.421  0.6411 -0.4543  0.2258
 5332SOL     OW21099   6.363   2.650   0.569 -0.0094  0.1575 -0.0537
 5332SOL    HW221100   6.355   2.555   0.580  0.8612 -0.0341 -0.9199
 5332SOL    HW321101   6.401   2.681   0.651  1.2771 -0.4858 -0.3838
 5332SOL    MW421102   6.367   2.641   0.581  0.3431  0.1297  0.3749
 5333SOL     OW21103   5.137   2.501   0.806 -0.4645 -0.1862  0.2624
 5333SOL    HW221104   5.129   2.444   0.882 -0.1783 -0.0406  0.4048
 5333SOL    HW321105   5.216   2.553   0.823  0.0574 -0.7089 -0.5100
 5333SOL    MW421106   5.146   2.501   0.818  0.5134 -0.0589  0.2292
 5334SOL     OW21107   0.402   5.968   2.628  0.3296  0.4663  0.0481
 5334SOL    HW221108   0.390   6.046   2.681 -1.9272  0.2988 -0.1449
 5334SOL    HW321109   0.496   5.967   2.608  0.7704  1.9537  1.7934
 5334SOL    MW421110   0.413   5.978   2.632  0.1883 -0.2422  0.7795
 5335SOL     OW21111   0.975   0.948   6.055  0.3802  0.0053  0.7256
 5335SOL    HW221112   0.920   0.911   5.986  0.9312  1.5962 -0.6501
 5335SOL    HW321113   1.064   0.939   6.021  0.5599  2.3115  0.3984
 5335SOL    MW421114   0.980   0.942   6.041 -0.5842  0.0642  0.3422
 5336SOL     OW21115   2.608   1.032   1.839  0.7672 -0.1069  0.0639
 5336SOL    HW221116   2.625   1.064   1.751 -1.1365  3.7240  0.9089
 5336SOL    HW321117   2.515   1.007   1.839  1.2039 -1.9446  0.5759
 5336SOL    MW421118   2.598   1.033   1.828  0.1141 -0.4402 -0.0430
 5337SOL     OW21119   5.371   0.050   1.350  0.0310 -0.0783 -0.0783
 5337SOL    HW221120   5.462   0.035   1.378  0.3439  0.1334 -0.9537
 5337SOL    HW321121   5.349  -0.028   1.298 -0.2875 -0.1233  0.1239
 5337SOL    MW421122   5.380   0.038   1.347  0.5253  0.6834  0.0439
 5338SOL     OW21123   3.468   3.620   2.398 -0.4198 -0.6043  0.0553
 5338SOL    HW221124   3.382   3.654   2.423 -0.9605 -1.3177 -0.7733
 5338SOL    HW321125   3.487   3.664   2.315 -0.3149 -0.9845 -0.1205
 5338SOL    MW421126   3.459   3.631   2.390 -0.4653  0.4996 -0.5583
 5339SOL     OW21127   3.613   5.901   2.079  0.1137 -0.1504  0.5413
 5339SOL    HW221128   3.701   5.903   2.040  0.0321 -0.8969  0.3037
 5339SOL    HW321129   3.556   5.935   2.011  0.0528 -0.8891  0.2099
 5339SOL    MW421130   3.617   5.906   2.065 -0.0861  0.6127  0.2209
 5340SOL     OW21131   4.784   3.372   3.281  0.2518  0.3834 -0.0001
 5340SOL    HW221132   4.791   3.277   3.279 -1.7740  0.1979 -0.8169
 5340SOL    HW321133   4.817   3.400   3.195 -0.6242  0.2537 -0.3938
 5340SOL    MW421134   4.789   3.363   3.269  0.1476 -0.6981 -0.4033
 5341SOL     OW21135   3.782   4.558   5.780  0.2576 -0.1240 -0.0022
 5341SOL    HW221136   3.779   4.468   5.811 -0.7368 -0.4799 -1.0735
 5341SOL    HW321137   3.868   4.567   5.740 -0.5865 -1.4406 -2.2447
 5341SOL    MW421138   3.793   4.547   5.779  0.8674  0.0066 -0.7368
 5342SOL     OW21139   0.351   4.107   1.435 -0.2820  0.0572 -0.4597
 5342SOL    HW221140   0.421   4.171   1.443 -0.9191  0.6953  0.0771
 5342SOL    HW321141   0.352   4.082   1.342 -0.9729  1.9481 -1.0316
 5342SOL    MW421142   0.360   4.112   1.423 -0.4035 -0.3028  0.4277
 5343SOL     OW21143   3.363   2.972   3.244  0.0418  0.8468 -0.3194
 5343SOL    HW221144   3.416   3.046   3.274  1.8373 -0.8466  0.9028
 5343SOL    HW321145   3.306   2.952   3.317  2.6296 -1.6418  1.2357
 5343SOL    MW421146   3.363   2.979   3.257 -0.4479  0.4464 -0.1230
 5344SOL     OW21147   1.258   0.696   6.129 -0.6895  0.0565 -0.7767
 5344SOL    HW221148   1.170   0.664   6.150  0.2017 -1.9443  0.2113
 5344SOL    HW321149   1.255   0.714   6.035 -1.2813 -3.4127 -1.5542
 5344SOL    MW421150   1.246   0.694   6.119 -0.3336 -0.0805  0.0201
 5345SOL     OW21151   5.448   0.051   1.751  0.1532 -0.3246  0.1192
 5345SOL    HW221152   5.429   0.073   1.842  0.4416 -0.6346  0.2567
 5345SOL    HW321153   5.490   0.130   1.715 -0.9056  0.1787 -0.0430
 5345SOL    MW421154   5.451   0.064   1.758 -0.3123 -0.1897  0.2439
 5346SOL     OW21155   2.865   0.698   1.079  0.6659  0.3760  0.0688
 5346SOL    HW221156   2.920   0.624   1.102  0.3528 -0.1738 -0.8674
 5346SOL    HW321157   2.893   0.723   0.991 -1.4136 -0.7796 -1.0008
 5346SOL    MW421158   2.876   0.692   1.070  1.0986 -0.3090 -0.2823
 5347SOL     OW21159   5.436   2.694   6.038 -0.1416  0.3087 -0.4549
 5347SOL    HW221160   5.392   2.643   5.970 -2.3784  0.9070  0.4452
 5347SOL    HW321161   5.364   2.731   6.090  1.4750  0.9552  1.4287
 5347SOL    MW421162   5.421   2.692   6.036  0.3252 -0.5817 -0.3615
 5348SOL     OW21163   1.869   1.981   1.149  0.2492  0.3041  0.0737
 5348SOL    HW221164   1.896   1.958   1.238  2.7021  2.1370 -0.0888
 5348SOL    HW321165   1.808   2.054   1.161 -0.4188 -0.2667  0.2537
 5348SOL    MW421166   1.864   1.988   1.163  0.7727 -0.1389 -0.4063
 5349SOL     OW21167   5.874   4.490   1.161 -0.8934  0.0240 -0.1841
 5349SOL    HW221168   5.950   4.435   1.140 -0.1617  1.3028 -1.0093
 5349SOL    HW321169   5.800   4.429   1.163 -0.2414 -0.8915 -1.8277
 5349SOL    MW421170   5.874   4.475   1.159  0.4524  0.4206  0.1722
 5350SOL     OW21171   1.610   3.371   5.849 -0.1151 -0.3406 -0.4901
 5350SOL    HW221172   1.641   3.366   5.758 -2.3656 -1.9958 -1.2367
 5350SOL    HW321173   1.635   3.287   5.887 -0.6878 -0.3353 -0.0999
 5350SOL    MW421174   1.618   3.360   5.842 -0.2908  0.4157  0.4825
 5351SOL     OW21175   3.173   4.872   5.052  0.6240  0.0236 -0.3962
 5351SOL    HW221176   3.255   4.827   5.033  0.5497 -1.5141  2.3714
 5351SOL    HW321177   3.125   4.812   5.109 -1.1771  2.0765  0.4224
 5351SOL    MW421178   3.177   4.858   5.057  0.2230  0.0910  0.4245
 5352SOL     OW21179   0.247   4.400   0.674 -0.7191 -0.1689  0.3567
 5352SOL    HW221180   0.286   4.373   0.590 -3.0441  1.4487 -1.3962
 5352SOL    HW321181   0.305   4.469   0.706 -0.4098  0.0286 -0.5741
 5352SOL    MW421182   0.260   4.406   0.667 -0.0739  0.4174  0.0099
 5353SOL     OW21183   5.449   3.420   1.454 -0.5688  0.8541 -0.9078
 5353SOL    HW221184   5.475   3.355   1.519 -0.2251  0.2796 -1.6006
 5353SOL    HW321185   5.475   3.504   1.492 -0.2292  0.5097 -0.3706
 5353SOL    MW421186   5.456   3.422   1.467 -0.4355 -0.0912  0.3390
 5354SOL     OW21187   4.267   2.996   3.151  0.1293  0.1746  0.3948
 5354SOL    HW221188   4.193   3.000   3.212  0.6802 -1.7250  1.2755
 5354SOL    HW321189   4.229   3.017   3.066 -1.4393 -0.6611  0.8452
 5354SOL    MW421190   4.252   2.999   3.148  0.0093  0.1562 -0.2599
 5355SOL     OW21191   2.233   2.877   0.390 -0.2882  0.1831 -0.0450
 5355SOL    HW221192   2.263   2.816   0.457  1.1014  2.1703  1.2558
 5355SOL    HW321193   2.283   2.854   0.312 -0.4987 -0.9118  0.1260
 5355SOL    MW421194   2.243   2.866   0.389 -0.2956 -0.1657 -0.0426
 5356SOL     OW21195   3.811   1.563   6.371 -0.0040 -0.2274  0.0979
 5356SOL    HW221196   3.899   1.555   6.406 -0.3990 -0.2980  1.0946
 5356SOL    HW321197   3.812   1.512   6.290  0.5847 -1.0861  0.6350
 5356SOL    MW421198   3.822   1.555   6.365 -0.1062 -0.3366 -0.0949
 5357SOL     OW21199   5.567   2.941   0.014 -0.0442 -0.1545  0.0820
 5357SOL    HW221200   5.611   2.972  -0.066 -1.5087 -1.4860 -1.3215
 5357SOL    HW321201   5.556   2.847  -0.000 -0.6421 -0.3580  1.7344
 5357SOL    MW421202   5.571   2.933   0.001  0.5736 -0.2093  0.6044
 5358SOL     OW21203   5.885   2.786   4.824 -0.1562 -0.4512  0.2944
 5358SOL    HW221204   5.812   2.848   4.816  0.8688  0.5782 -1.8373
 5358SOL    HW321205   5.861   2.713   4.767  0.4780 -0.0572 -0.5070
 5358SOL    MW421206   5.872   2.785   4.815  0.1625  0.1471  0.1597
 5359SOL     OW21207   3.034   5.183   2.459  0.0776  0.8010  0.1365
 5359SOL    HW221208   3.021   5.270   2.496  1.6146  1.3582 -0.5383
 5359SOL    HW321209   2.950   5.161   2.419 -0.9434  1.1061  1.9737
 5359SOL    MW421210   3.021   5.192   2.459 -0.3478  0.5951 -0.0011
 5360SOL     OW21211   6.340   1.321   2.028 -0.1023 -0.1992  0.0245
 5360SOL    HW221212   6.386   1.313   1.945 -1.6586  0.0320 -0.9014
 5360SOL    HW321213   6.381   1.255   2.085  0.7320 -0.6291 -1.0467
 5360SOL    MW421214   6.351   1.311   2.025 -0.1947  0.1071 -0.6601
 5361SOL     OW21215   3.486   4.733   4.159 -0.2343  0.5648  0.0778
 5361SOL    HW221216   3.477   4.807   4.100 -0.5479 -0.8597 -1.7381
 5361SOL    HW321217   3.408   4.680   4.144  1.5913 -1.9518 -1.3781
 5361SOL    MW421218   3.475   4.736   4.150 -0.0954 -0.0380  1.0180
 5362SOL     OW21219   1.597   1.100   5.026  0.0736  0.0932  0.0067
 5362SOL    HW221220   1.626   1.153   4.951  0.2177  0.4170  0.2894
 5362SOL    HW321221   1.512   1.137   5.050  0.9717  1.4086  1.3493
 5362SOL    MW421222   1.589   1.112   5.019  0.0475 -0.0998 -0.0253
 5363SOL     OW21223   2.017   0.173   2.174 -0.0114 -0.2538  0.1439
 5363SOL    HW221224   2.045   0.169   2.083 -0.7403 -2.0230 -0.0406
 5363SOL    HW321225   1.967   0.093   2.188 -0.0141  0.0210  2.0761
 5363SOL    MW421226   2.014   0.162   2.164 -0.0442  0.3809  0.3874
 5364SOL     OW21227   2.754   4.739   4.052 -0.8570  0.0168  0.2832
 5364SOL    HW221228   2.803   4.794   4.113  0.3958  0.4220 -1.0209
 5364SOL    HW321229   2.695   4.799   4.007 -2.4786 -0.4368  1.6999
 5364SOL    MW421230   2.753   4.754   4.054 -0.1279 -0.4041 -0.4033
 5365SOL     OW21231   1.900   5.886   4.714 -0.3444 -0.2974 -0.4264
 5365SOL    HW221232   1.934   5.801   4.744  0.7285  0.3317  0.2168
 5365SOL    HW321233   1.839   5.913   4.783 -1.8029 -1.1679 -1.3127
 5365SOL    MW421234   1.896   5.878   4.727 -0.4534 -0.0972 -0.1576
 5366SOL     OW21235   3.828   4.476   1.520 -0.7630 -0.5459 -0.2512
 5366SOL    HW221236   3.849   4.443   1.433 -0.6330 -1.7089  0.1972
 5366SOL    HW321237   3.881   4.422   1.579 -2.8735 -1.6659  0.7344
 5366SOL    MW421238   3.838   4.464   1.516 -0.0098 -0.4607  0.4208
 5367SOL     OW21239   6.203   1.697   1.957  0.4636  0.3336 -0.2713
 5367SOL    HW221240   6.274   1.642   1.989 -0.6270 -1.0904 -0.2131
 5367SOL    HW321241   6.192   1.764   2.025 -1.7223 -2.5370  2.4761
 5367SOL    MW421242   6.211   1.699   1.970  0.4786 -0.1196 -0.2323
 5368SOL     OW21243   1.647   2.067   3.019 -0.1212 -0.4109 -0.5566
 5368SOL    HW221244   1.718   2.004   3.034 -0.0411 -0.3835 -0.8184
 5368SOL    HW321245   1.686   2.135   2.966  0.2433  0.7127  1.0654
 5368SOL    MW421246   1.662   2.068   3.014  0.2345  0.2499  0.3245
 5369SOL     OW21247   3.289   5.053   4.275 -0.7231  0.0990 -0.0318
 5369SOL    HW221248   3.333   5.023   4.195  0.4863  1.3335  0.1326
 5369SOL    HW321249   3.261   4.973   4.319  1.2205 -0.7451 -0.2333
 5369SOL    MW421250   3.291   5.039   4.270  0.1571 -0.1121  0.0254
 5370SOL     OW21251   4.343   2.776   6.222 -0.2139  0.0308  0.2543
 5370SOL    HW221252   4.297   2.695   6.199 -1.0964  0.4410  0.5501
 5370SOL    HW321253   4.301   2.844   6.171  0.5040  0.3234  0.0361
 5370SOL    MW421254   4.331   2.774   6.212  0.6706  0.3232 -0.4464
 5371SOL     OW21255   3.282   5.403   5.207 -0.2863 -0.4670 -0.0860
 5371SOL    HW221256   3.232   5.323   5.220 -0.5682 -0.1705  0.7334
 5371SOL    HW321257   3.275   5.450   5.291 -0.0380  0.3606 -0.5145
 5371SOL    MW421258   3.274   5.399   5.220 -0.2301 -0.1789 -0.1164
 5372SOL     OW21259   2.182   4.026   3.086  0.5711 -0.3952  0.0368
 5372SOL    HW221260   2.187   4.017   2.991 -1.3159  0.1866 -0.1600
 5372SOL    HW321261   2.094   4.060   3.102  0.1593 -2.2587  2.1259
 5372SOL    MW421262   2.171   4.029   3.075 -0.4565 -0.1023 -0.3893
 5373SOL     OW21263   1.906   0.652   1.470  0.2406  0.4681  0.5173
 5373SOL    HW221264   1.969   0.601   1.522 -0.1506  0.7818  1.3203
 5373SOL    HW321265   1.925   0.743   1.491 -0.9905  0.5485  1.4213
 5373SOL    MW421266   1.917   0.657   1.480 -0.1906  0.4759 -0.4969
 5374SOL     OW21267   0.451   1.926   5.802  0.6813 -0.1742  0.2890
 5374SOL    HW221268   0.385   1.959   5.863  2.3458  1.6245  1.2344
 5374SOL    HW321269   0.401   1.895   5.727 -1.2467  0.6783  1.1433
 5374SOL    MW421270   0.436   1.926   5.800  0.1465  0.1804 -0.2613
 5375SOL     OW21271   0.994   4.082   3.412  0.4361 -0.6250  0.4652
 5375SOL    HW221272   1.066   4.018   3.405  0.0506 -0.9981 -0.2197
 5375SOL    HW321273   0.916   4.033   3.386 -0.1235 -0.2986  1.4699
 5375SOL    MW421274   0.994   4.067   3.408 -0.1071  0.3156  0.1607
 5376SOL     OW21275   2.230   2.381   4.589  0.1239  0.2029 -0.0575
 5376SOL    HW221276   2.250   2.470   4.559 -1.6806  0.6108 -0.2024
 5376SOL    HW321277   2.175   2.345   4.519 -1.9237  0.1987  1.4723
 5376SOL    MW421278   2.225   2.388   4.576 -0.3544 -0.1510 -0.0175
 5377SOL     OW21279   2.805   1.791   5.717 -0.5950  0.5599  0.3622
 5377SOL    HW221280   2.828   1.880   5.693 -1.8602  0.8441  0.1563
 5377SOL    HW321281   2.735   1.800   5.782  1.0093 -0.2374  2.3196
 5377SOL    MW421282   2.799   1.804   5.722  0.3728  0.1574 -0.4519
 5378SOL     OW21283   0.271   0.139   0.649 -0.0179  0.2422 -0.5068
 5378SOL    HW221284   0.299   0.151   0.740  0.8250  1.2202 -0.8736
 5378SOL    HW321285   0.244   0.048   0.644  0.4793  0.0209  0.5755
 5378SOL    MW421286   0.271   0.129   0.660 -0.1794 -0.1574  0.4020
 5379SOL     OW21287   0.566   4.559   5.246 -0.1473 -0.0755  0.2955
 5379SOL    HW221288   0.547   4.536   5.155 -0.8088  1.4993 -0.0111
 5379SOL    HW321289   0.546   4.480   5.296  0.0893 -0.9264 -0.9025
 5379SOL    MW421290   0.561   4.546   5.240  0.2872 -0.2783 -0.0324
 5380SOL     OW21291   1.727   3.671   2.867 -0.1375 -0.6243 -0.6757
 5380SOL    HW221292   1.717   3.681   2.962  0.9977 -0.4434 -0.5672
 5380SOL    HW321293   1.642   3.698   2.832  0.4337  2.5826  0.0714
 5380SOL    MW421294   1.715   3.676   2.875  0.3952 -0.1290  0.4340
 5381SOL     OW21295   2.821   4.651   3.792  0.6100 -0.6161  0.4593
 5381SOL    HW221296   2.809   4.557   3.806  0.2025 -0.4517  1.2999
 5381SOL    HW321297   2.804   4.690   3.878 -1.7138  0.4557 -0.4080
 5381SOL    MW421298   2.817   4.644   3.805 -0.2574 -0.0100 -0.5767
 5382SOL     OW21299   4.620   2.321   5.279  0.4250  0.0085 -0.0852
 5382SOL    HW221300   4.650   2.231   5.292  1.1935  0.5079  2.0884
 5382SOL    HW321301   4.653   2.345   5.192  2.1812 -1.0792  0.2234
 5382SOL    MW421302   4.628   2.312   5.269  0.3286 -0.0356 -0.3814
 5383SOL     OW21303   3.664   0.813   6.032 -0.3856 -0.2779  0.2029
 5383SOL    HW221304   3.638   0.899   6.064  0.9174  0.7487 -1.3376
 5383SOL    HW321305   3.760   0.815   6.031 -0.2113  0.1100 -4.2277
 5383SOL    MW421306   3.674   0.825   6.036  0.1083 -0.1237 -0.7749
 5384SOL     OW21307   5.759   0.750   0.538 -0.5529 -0.3526  0.4601
 5384SOL    HW221308   5.797   0.786   0.458 -0.5495 -1.0545  0.1390
 5384SOL    HW321309   5.815   0.676   0.560  1.2176  1.4613  2.7398
 5384SOL    MW421310   5.772   0.745   0.531  0.3464  0.0177  0.5946
 5385SOL     OW21311   4.142   0.059   4.249  0.6029 -0.1790 -0.0357
 5385SOL    HW221312   4.085   0.125   4.289  1.0749 -0.5522  1.3091
 5385SOL    HW321313   4.102   0.041   4.164 -0.7440  0.2711  0.4701
 5385SOL    MW421314   4.129   0.065   4.243  0.2418 -0.5337 -0.0256
 5386SOL     OW21315   5.315   6.284   1.132 -0.2709  0.1864  0.1862
 5386SOL    HW221316   5.405   6.263   1.107 -0.2873 -1.2294  1.2197
 5386SOL    HW321317   5.270   6.295   1.049  0.6227 -0.1502 -0.3626
 5386SOL    MW421318   5.321   6.283   1.118  0.0515  0.5931 -0.2437
 5387SOL     OW21319   5.336   0.841   2.103 -0.3855 -0.2596  0.3048
 5387SOL    HW221320   5.312   0.927   2.137 -0.3165  0.4482 -1.3273
 5387SOL    HW321321   5.353   0.788   2.181  0.3956  1.4332  1.3353
 5387SOL    MW421322   5.335   0.845   2.118 -0.0205  0.3940  0.1047
 5388SOL     OW21323   5.918   6.406   3.639  0.0807  0.3140 -0.9126
 5388SOL    HW221324   6.010   6.425   3.622  0.2855 -1.2776 -1.8005
 5388SOL    HW321325   5.874   6.491   3.633  1.3078  0.9073 -1.7734
 5388SOL    MW421326   5.924   6.420   3.636  0.4212  0.3813  0.3862
 5389SOL     OW21327   5.718   5.953   2.204 -0.7890 -0.0368  0.3789
 5389SOL    HW221328   5.811   5.933   2.215 -0.8250 -0.5560 -0.2285
 5389SOL    HW321329   5.688   5.972   2.293 -0.3212 -0.8474  0.7311
 5389SOL    MW421330   5.726   5.952   2.217  0.2787 -0.6797  0.1189
 5390SOL     OW21331   0.186   5.215   1.526 -0.7843  0.0998  0.2242
 5390SOL    HW221332   0.203   5.275   1.599 -0.9021 -0.2129  0.5073
 5390SOL    HW321333   0.156   5.273   1.455  0.3104  0.5217  0.0829
 5390SOL    MW421334   0.184   5.231   1.526 -1.0953  0.7360 -0.1914
 5391SOL     OW21335   4.169   5.072   1.625 -0.1496 -0.2490  0.1576
 5391SOL    HW221336   4.144   5.155   1.666  1.3379 -0.2356  1.0922
 5391SOL    HW321337   4.169   5.091   1.531 -0.4078  0.6312  0.3288
 5391SOL    MW421338   4.165   5.085   1.618  0.0958 -0.1813  0.8328
 5392SOL     OW21339   1.191   4.723   0.033  0.2328  0.1821 -0.2106
 5392SOL    HW221340   1.164   4.776  -0.042  1.4233 -0.4073 -1.0864
 5392SOL    HW321341   1.130   4.649   0.034 -0.3637  0.6702 -0.0244
 5392SOL    MW421342   1.180   4.720   0.023  0.3804 -0.0593  0.0021
 5393SOL     OW21343   0.846   4.421   5.017  0.1952 -0.2668  0.4534
 5393SOL    HW221344   0.938   4.395   5.009  0.1486 -0.2648 -0.2099
 5393SOL    HW321345   0.809   4.402   4.930 -0.2482  0.4285  0.4866
 5393SOL    MW421346   0.853   4.415   5.004 -0.3916  0.5700 -0.3387
 5394SOL     OW21347   3.444   3.134   2.305 -0.5581 -0.4056  0.0659
 5394SOL    HW221348   3.534   3.163   2.319  0.0731 -2.0999 -0.2669
 5394SOL    HW321349   3.396   3.164   2.382 -0.1512  2.1296 -0.6039
 5394SOL    MW421350   3.450   3.142   2.317  0.3360 -0.3066 -0.6159
 5395SOL     OW21351   4.013   6.332   5.742 -0.0122  0.3951 -0.7031
 5395SOL    HW221352   4.017   6.301   5.652  0.0788 -1.9909  0.0366
 5395SOL    HW321353   4.053   6.261   5.793 -0.9714  1.2180  1.3132
 5395SOL    MW421354   4.019   6.318   5.737 -0.1064  0.5510 -0.0038
 5396SOL     OW21355   2.495   1.311   1.878  0.1292  0.0184 -0.2536
 5396SOL    HW221356   2.515   1.394   1.922 -1.8105  0.2688  0.2760
 5396SOL    HW321357   2.497   1.331   1.785  0.7712  0.3747 -0.1661
 5396SOL    MW421358   2.498   1.324   1.872  0.2132  0.3314  0.0287
 5397SOL     OW21359   3.424   5.389   4.944  0.2760  0.1927  0.2128
 5397SOL    HW221360   3.519   5.389   4.954  0.3156 -2.8938  0.8088
 5397SOL    HW321361   3.391   5.405   5.032  0.2030  1.3312 -0.0055
 5397SOL    MW421362   3.432   5.391   4.957  0.7498  0.1894  0.3436
 5398SOL     OW21363   5.959   5.296   5.258 -0.2427 -0.5443  0.8751
 5398SOL    HW221364   5.996   5.314   5.344  0.3087  0.4639  0.4600
 5398SOL    HW321365   6.030   5.252   5.210 -0.6732 -1.4331  1.0480
 5398SOL    MW421366   5.973   5.293   5.263 -0.2794  0.5041  0.1078
 5399SOL     OW21367   2.016   0.369   5.518  0.2823 -0.5623  0.1897
 5399SOL    HW221368   1.979   0.311   5.585 -0.3799 -1.5990 -1.0231
 5399SOL    HW321369   1.950   0.437   5.506  0.0319 -0.8270  0.0403
 5399SOL    MW421370   2.002   0.370   5.525  0.3408 -0.4448 -0.0163
 5400SOL     OW21371   2.744   3.393   6.367 -0.6028  0.9498  0.2734
 5400SOL    HW221372   2.822   3.354   6.329 -0.8761  1.1024 -0.4672
 5400SOL    HW321373   2.702   3.322   6.415  0.1248  0.9358  0.8974
 5400SOL    MW421374   2.748   3.379   6.368 -0.6443 -0.3612 -0.1594
 5401SOL     OW21375   4.728   3.554   6.321  0.4641  0.7607 -0.3227
 5401SOL    HW221376   4.665   3.626   6.322  0.2263  0.5537  1.0209
 5401SOL    HW321377   4.804   3.588   6.369  0.4880  0.2389  0.0157
 5401SOL    MW421378   4.730   3.568   6.328 -0.4070 -0.1483  0.0133
 5402SOL     OW21379   5.648   3.186   5.881  0.3886 -0.1729 -0.8336
 5402SOL    HW221380   5.614   3.097   5.889  2.2002 -0.7648  2.0883
 5402SOL    HW321381   5.577   3.241   5.913 -0.1801 -0.7292 -1.1188
 5402SOL    MW421382   5.634   3.181   5.887 -0.6033  0.4075  0.0114
 5403SOL     OW21383   4.775   4.398   2.496  0.3792 -0.0528  0.3174
 5403SOL    HW221384   4.787   4.355   2.581 -0.0274 -0.0651  0.3711
 5403SOL    HW321385   4.777   4.326   2.433 -0.5669 -0.1876  0.4315
 5403SOL    MW421386   4.777   4.383   2.499 -0.1312 -0.3076 -0.1002
 5404SOL     OW21387   1.676   1.401   0.899  0.2047 -0.2164  0.2430
 5404SOL    HW221388   1.763   1.429   0.869  1.4347 -1.3064  2.5603
 5404SOL    HW321389   1.689   1.376   0.990 -2.4288 -1.0661  0.4563
 5404SOL    MW421390   1.689   1.402   0.907 -0.3278 -0.0665 -0.2691
 5405SOL     OW21391   4.150   0.629   0.289 -0.3066  0.3096  0.4570
 5405SOL    HW221392   4.156   0.550   0.235  0.1700  0.2747  0.5595
 5405SOL    HW321393   4.238   0.667   0.286  0.1262 -0.4535  2.3856
 5405SOL    MW421394   4.162   0.624   0.281  0.1751 -0.2880  0.2338
 5406SOL     OW21395   5.568   2.262   0.949 -0.6024 -0.0200 -0.0513
 5406SOL    HW221396   5.551   2.200   1.019 -0.3279  0.8682  0.8255
 5406SOL    HW321397   5.567   2.209   0.869  2.8263 -1.7805  0.8829
 5406SOL    MW421398   5.566   2.247   0.947 -0.1046 -0.0238 -0.1646
 5407SOL     OW21399   2.751   5.661   1.519 -0.7435  0.4881  0.0993
 5407SOL    HW221400   2.801   5.582   1.537  0.9491  1.2436 -1.0609
 5407SOL    HW321401   2.786   5.727   1.579 -1.2382  0.6973  0.1662
 5407SOL    MW421402   2.762   5.659   1.529  0.0290 -0.1048  0.0632
 5408SOL     OW21403   5.002   5.254   2.336  0.1902  0.6745 -0.1306
 5408SOL    HW221404   5.080   5.247   2.280 -1.2818 -0.1229 -2.1999
 5408SOL    HW321405   4.966   5.166   2.338  0.9624  0.2552  3.4666
 5408SOL    MW421406   5.008   5.241   2.329 -0.5734  0.2034 -0.1910
 5409SOL     OW21407   4.615   1.413   4.804  0.3787 -0.3310 -0.0077
 5409SOL    HW221408   4.694   1.361   4.794 -0.0540 -1.2806  1.2896
 5409SOL    HW321409   4.544   1.354   4.778  0.0281  0.2244 -0.3298
 5409SOL    MW421410   4.616   1.398   4.799 -0.1347  0.0766  0.1049
 5410SOL     OW21411   4.116   6.023   1.256  0.3855 -0.2610  0.0029
 5410SOL    HW221412   4.067   5.945   1.230  0.6153 -0.7038  0.8923
 5410SOL    HW321413   4.208   6.000   1.239  0.3001  0.9029 -2.5714
 5410SOL    MW421414   4.122   6.010   1.250  0.2616 -0.2759 -0.1171
 5411SOL     OW21415   0.090   4.769   5.058 -0.5209  0.5183 -0.3012
 5411SOL    HW221416   0.073   4.857   5.025 -0.7161  0.2440 -0.9587
 5411SOL    HW321417   0.177   4.747   5.025 -1.0293 -0.0522 -1.3038
 5411SOL    MW421418   0.099   4.778   5.049  0.6418  0.3680 -0.1593
 5412SOL     OW21419   1.438   4.709   3.397  0.4180 -0.2564  0.3862
 5412SOL    HW221420   1.410   4.627   3.356 -0.2067  0.5506 -0.8535
 5412SOL    HW321421   1.359   4.762   3.402  0.9669  0.5635  0.4654
 5412SOL    MW421422   1.424   4.705   3.392 -0.1496  0.4955  0.0042
 5413SOL     OW21423   0.999   4.558   3.402 -0.2214  0.0390 -0.3880
 5413SOL    HW221424   1.001   4.616   3.326  3.1360 -0.5816 -0.8948
 5413SOL    HW321425   1.012   4.616   3.477  1.2584  0.1679 -0.7304
 5413SOL    MW421426   1.001   4.573   3.402 -0.0450  0.3104  0.2899
 5414SOL     OW21427   0.167   1.965   2.688 -0.2141  0.1182  0.3471
 5414SOL    HW221428   0.122   1.902   2.631 -1.3634  0.3931  0.9013
 5414SOL    HW321429   0.096   2.004   2.740  0.5612  1.3988  0.4705
 5414SOL    MW421430   0.151   1.962   2.688  0.1025 -0.4583 -0.2218
 5415SOL     OW21431   6.184   0.169   3.161  0.4354 -0.0177 -0.6545
 5415SOL    HW221432   6.153   0.149   3.073 -2.2759  1.9528 -0.2973
 5415SOL    HW321433   6.150   0.099   3.216 -2.5113  1.4104 -0.4889
 5415SOL    MW421434   6.176   0.157   3.156  0.3108  0.1046 -0.3368
 5416SOL     OW21435   5.393   2.176   3.756  0.0030  0.0737  0.2574
 5416SOL    HW221436   5.318   2.138   3.802 -0.5125 -0.3970 -0.9322
 5416SOL    HW321437   5.373   2.164   3.663  0.2870  2.3305 -0.1694
 5416SOL    MW421438   5.380   2.170   3.750 -0.4642 -0.1227 -0.2440
 5417SOL     OW21439   4.886   2.852   0.584 -0.0441  0.3699 -0.0277
 5417SOL    HW221440   4.837   2.776   0.554 -0.0419  0.2198  0.3510
 5417SOL    HW321441   4.869   2.857   0.678 -2.1330  2.3213 -0.4133
 5417SOL    MW421442   4.877   2.843   0.592  0.1253 -0.5397  0.9967
 5418SOL     OW21443   4.245   6.293   1.744 -0.1733 -0.4491 -0.0875
 5418SOL    HW221444   4.249   6.248   1.660 -0.5429 -2.4428  0.8946
 5418SOL    HW321445   4.332   6.281   1.782  0.3629  1.4531 -0.6390
 5418SOL    MW421446   4.257   6.285   1.738  0.0947 -0.3321 -0.6262
 5419SOL     OW21447   2.406   2.728   2.831  0.2838  0.4975 -0.4513
 5419SOL    HW221448   2.489   2.768   2.803  1.3094 -0.2654  1.3197
 5419SOL    HW321449   2.367   2.793   2.889  0.1503  0.4365 -0.4743
 5419SOL    MW421450   2.412   2.742   2.835 -0.1934  0.2217  0.2931
 5420SOL     OW21451   1.036   4.253   1.043  0.1129  0.0732 -0.7568
 5420SOL    HW221452   1.119   4.267   0.998 -0.6724  2.9521 -1.5430
 5420SOL    HW321453   1.050   4.289   1.131 -0.3149  0.7302 -0.9488
 5420SOL    MW421454   1.049   4.259   1.049  0.2900 -0.4556 -0.8078
 5421SOL     OW21455   4.007   5.479   2.087  0.1798  0.2959  0.1063
 5421SOL    HW221456   3.944   5.552   2.081  1.6988  1.5432 -2.0993
 5421SOL    HW321457   4.050   5.492   2.171  0.7392  2.2849 -0.4262
 5421SOL    MW421458   4.004   5.490   2.097  0.4634 -0.3979  0.1954
 5422SOL     OW21459   2.719   2.242   0.404  0.3590 -0.0229 -0.4604
 5422SOL    HW221460   2.715   2.157   0.448 -0.9279  0.2305 -0.0434
 5422SOL    HW321461   2.765   2.298   0.466 -0.5175  0.0618  0.1436
 5422SOL    MW421462   2.724   2.238   0.418 -0.0496 -0.1197  0.0431
 5423SOL     OW21463   5.282   2.729   0.077  0.0406  0.3402 -0.2375
 5423SOL    HW221464   5.200   2.692   0.045 -1.0251  1.3938  1.1262
 5423SOL    HW321465   5.263   2.822   0.090  1.4874  0.6277 -0.0084
 5423SOL    MW421466   5.269   2.736   0.075 -0.0338 -0.6291 -0.1996
 5424SOL     OW21467   3.491   4.128   1.397 -0.5151 -0.1283 -0.5277
 5424SOL    HW221468   3.523   4.057   1.454  0.3980  0.0898 -0.7556
 5424SOL    HW321469   3.536   4.206   1.429 -0.5020  0.1114 -1.1285
 5424SOL    MW421470   3.501   4.129   1.409 -0.4984 -0.1069 -0.4834
 5425SOL     OW21471   2.653   5.814   2.568 -0.2280  0.0977 -0.2388
 5425SOL    HW221472   2.667   5.748   2.500 -1.2415  1.2636 -1.6568
 5425SOL    HW321473   2.696   5.893   2.533 -0.2520  0.5584  0.7589
 5425SOL    MW421474   2.660   5.816   2.554 -0.0295 -0.1412  0.8570
 5426SOL     OW21475   1.232   1.581   2.166  0.2135 -0.2909 -0.4919
 5426SOL    HW221476   1.292   1.654   2.154  2.9304 -2.3338 -0.4100
 5426SOL    HW321477   1.192   1.596   2.252  0.1446  1.4097 -0.7905
 5426SOL    MW421478   1.235   1.592   2.176  0.2141 -0.3002 -0.3853
 5427SOL     OW21479   3.038   0.419   3.550 -0.2012 -0.2280  0.4473
 5427SOL    HW221480   3.006   0.335   3.516  1.1721 -0.6259  0.0980
 5427SOL    HW321481   3.110   0.395   3.609  0.7422  0.7433 -0.2806
 5427SOL    MW421482   3.043   0.405   3.553  0.3113  0.1219 -0.0485
 5428SOL     OW21483   0.614   1.138   3.527 -1.0645 -0.4761  0.4625
 5428SOL    HW221484   0.591   1.114   3.617 -1.5016 -1.2361  0.1605
 5428SOL    HW321485   0.699   1.182   3.534 -1.8546  0.9707  1.4306
 5428SOL    MW421486   0.622   1.141   3.539  0.2392  0.1988 -0.4062
 5429SOL     OW21487   3.052   4.261   3.886  0.2658 -0.0520  0.0195
 5429SOL    HW221488   3.029   4.321   3.957 -1.1823  0.8311 -1.1366
 5429SOL    HW321489   3.033   4.174   3.921 -0.2853  0.3588  0.7730
 5429SOL    MW421490   3.046   4.257   3.900 -0.5752  0.1449 -0.1083
 5430SOL     OW21491   2.359   3.191   3.901  0.4689  0.5812 -0.5262
 5430SOL    HW221492   2.284   3.244   3.874  0.5534  1.7981  1.4031
 5430SOL    HW321493   2.435   3.246   3.882  0.5116  1.6216  2.2344
 5430SOL    MW421494   2.359   3.206   3.895 -1.2238 -0.0329  0.2984
 5431SOL     OW21495   1.289   4.273   2.338 -0.4451 -0.0646  0.1050
 5431SOL    HW221496   1.235   4.349   2.316  1.7628  0.6857 -3.4110
 5431SOL    HW321497   1.349   4.306   2.406  0.8865  1.6567 -1.7929
 5431SOL    MW421498   1.290   4.287   2.344 -0.5577 -0.2518 -0.2836
 5432SOL     OW21499   3.903   4.739   2.457  0.3019 -0.2420  0.6556
 5432SOL    HW221500   3.931   4.796   2.528  1.0621  1.4216 -0.8879
 5432SOL    HW321501   3.978   4.738   2.396 -0.4491 -1.3171 -0.2944
 5432SOL    MW421502   3.917   4.746   2.458 -0.0727 -0.4294 -0.0933
 5433SOL     OW21503   0.545   4.720   0.174  0.5379 -0.6662 -0.0727
 5433SOL    HW221504   0.609   4.776   0.219  0.9961 -0.2685 -1.1875
 5433SOL    HW321505   0.461   4.761   0.191  0.7939 -0.0551 -0.2555
 5433SOL    MW421506   0.542   4.733   0.183 -0.0504 -0.2169 -0.1467
 5434SOL     OW21507   2.472   2.297   2.225  0.9199  0.4486 -0.1006
 5434SOL    HW221508   2.541   2.360   2.244 -0.3284  1.1764  2.4720
 5434SOL    HW321509   2.391   2.347   2.230  0.0757 -0.7091 -1.4630
 5434SOL    MW421510   2.470   2.312   2.228 -0.0510 -0.2535 -0.3110
 5435SOL     OW21511   5.654   2.561   1.796 -0.4987 -0.0065 -0.7762
 5435SOL    HW221512   5.568   2.521   1.805 -1.2427  1.8214  0.7581
 5435SOL    HW321513   5.693   2.517   1.720 -2.5924 -1.1614 -1.2439
 5435SOL    MW421514   5.648   2.550   1.787  0.0504 -0.0009 -0.2694
 5436SOL     OW21515   4.899   3.925   3.238 -0.5866 -0.0350  0.0325
 5436SOL    HW221516   4.856   3.941   3.154 -0.8757  1.3131  0.4096
 5436SOL    HW321517   4.878   4.002   3.290 -0.2508 -0.7643  1.2834
 5436SOL    MW421518   4.891   3.937   3.234 -0.2947  0.3357 -0.4778
 5437SOL     OW21519   2.195   0.474   3.952  0.6017  0.4666  0.0071
 5437SOL    HW221520   2.136   0.547   3.936  0.1156  0.1518  0.3487
 5437SOL    HW321521   2.194   0.424   3.870  0.1878  0.3160  0.1047
 5437SOL    MW421522   2.187   0.477   3.939 -0.0920 -0.2278  0.0298
 5438SOL     OW21523   2.255   5.003   3.476 -0.1540 -0.0965  0.3362
 5438SOL    HW221524   2.335   4.951   3.468  0.8234  1.3568  0.3477
 5438SOL    HW321525   2.191   4.957   3.422  0.6562 -1.3219  0.3839
 5438SOL    MW421526   2.257   4.990   3.468 -0.7600  0.7806  0.1363
 5439SOL     OW21527   3.757   3.924   1.284  0.2399  0.8274 -0.3741
 5439SOL    HW221528   3.787   3.836   1.307  0.5088  1.1346  0.4864
 5439SOL    HW321529   3.693   3.910   1.214  2.1983  0.1465 -2.1550
 5439SOL    MW421530   3.752   3.911   1.278 -0.5535  0.1731 -0.1543
 5440SOL     OW21531   1.624   0.674   6.011  0.1589 -0.0300 -0.1696
 5440SOL    HW221532   1.583   0.626   6.083  0.9482 -0.6942 -0.1464
 5440SOL    HW321533   1.572   0.649   5.934 -0.2810  0.1633  0.0632
 5440SOL    MW421534   1.611   0.664   6.010  0.1071  0.1199  0.2099
 5441SOL     OW21535   0.001   5.746   0.889 -0.5269 -0.5326  0.1979
 5441SOL    HW221536   0.004   5.774   0.798  0.1629  0.7184  0.5735
 5441SOL    HW321537   0.056   5.668   0.892 -0.1036 -0.2660 -0.3642
 5441SOL    MW421538   0.009   5.739   0.878  0.1290 -0.5196 -0.4423
 5442SOL     OW21539   6.353   5.828   2.384  0.2060  0.5976  0.3476
 5442SOL    HW221540   6.402   5.813   2.303  0.4409  0.7825  0.4568
 5442SOL    HW321541   6.371   5.750   2.437  0.0948  0.5014  0.2463
 5442SOL    MW421542   6.362   5.816   2.380 -0.8772  0.4487  0.0058
 5443SOL     OW21543   5.329   4.949   0.063 -0.1798 -0.3357  0.1293
 5443SOL    HW221544   5.274   5.016   0.103  1.5130  1.2328 -0.0415
 5443SOL    HW321545   5.418   4.984   0.070  0.9109 -3.0443  0.9543
 5443SOL    MW421546   5.333   4.963   0.069  0.3706 -0.3042 -0.3806
 5444SOL     OW21547   0.551   0.333   2.642 -0.1685 -0.7198 -0.0888
 5444SOL    HW221548   0.474   0.294   2.683 -0.2491 -0.1299  0.3247
 5444SOL    HW321549   0.604   0.365   2.715  0.6808 -1.4974 -0.3447
 5444SOL    MW421550   0.548   0.332   2.657  0.2799  0.2470 -0.2025
 5445SOL     OW21551   5.718   2.223   5.078  0.0925  0.2223  0.7232
 5445SOL    HW221552   5.702   2.310   5.116 -0.2278  0.7794 -0.6262
 5445SOL    HW321553   5.646   2.169   5.110  0.3203  0.4283  1.6103
 5445SOL    MW421554   5.706   2.227   5.087 -0.1608  0.3584  0.3472
 5446SOL     OW21555   1.706   4.145   5.399 -0.3383 -0.4651  0.5274
 5446SOL    HW221556   1.761   4.165   5.475  0.1991 -1.8421  0.5360
 5446SOL    HW321557   1.753   4.184   5.325  0.8076 -1.8243  0.5064
 5446SOL    MW421558   1.720   4.153   5.399 -0.2937  0.1391 -0.0665
 5447SOL     OW21559   5.559   1.079   3.932 -0.0506 -0.0940  0.3298
 5447SOL    HW221560   5.620   1.010   3.907 -0.5529 -0.9538  1.3865
 5447SOL    HW321561   5.613   1.156   3.946  0.9685 -1.0865  2.2440
 5447SOL    MW421562   5.574   1.080   3.931 -0.2445  0.4711  0.3168
 5448SOL     OW21563   2.530   6.152   4.541 -0.3753 -0.1625  0.6799
 5448SOL    HW221564   2.482   6.089   4.596 -2.4857  1.7719  1.1839
 5448SOL    HW321565   2.472   6.167   4.467  1.2451 -0.6572 -0.7384
 5448SOL    MW421566   2.516   6.145   4.539  0.3008 -0.1782 -0.1390
 5449SOL     OW21567   2.032   2.768   5.546  0.3896 -0.1961  0.2754
 5449SOL    HW221568   2.000   2.781   5.457 -1.8922 -3.0232  0.5548
 5449SOL    HW321569   1.959   2.795   5.602  0.5019 -1.6115  1.1478
 5449SOL    MW421570   2.018   2.773   5.542  0.4527  0.0562 -0.4515
 5450SOL     OW21571   5.745   3.656   2.504  0.3925  0.0807 -0.4878
 5450SOL    HW221572   5.757   3.589   2.571  0.3318  0.7678  0.2256
 5450SOL    HW321573   5.823   3.650   2.450  1.1452  0.4784  0.5179
 5450SOL    MW421574   5.757   3.646   2.506  0.5498  0.1779 -0.4490
 5451SOL     OW21575   2.253   3.905   2.034  0.1617 -0.2812  0.0098
 5451SOL    HW221576   2.319   3.916   1.965  0.2010  1.5525  0.2714
 5451SOL    HW321577   2.291   3.951   2.109 -0.1581 -1.7136  1.0771
 5451SOL    MW421578   2.267   3.913   2.034 -0.4572  0.3998 -0.7367
 5452SOL     OW21579   4.332   2.433   0.058 -0.4258  0.5915 -0.0940
 5452SOL    HW221580   4.355   2.342   0.041  1.2564  0.4572  2.2958
 5452SOL    HW321581   4.243   2.431   0.092  0.3302 -0.5103  1.9884
 5452SOL    MW421582   4.324   2.421   0.060 -0.0213 -0.4300 -0.3286
 5453SOL     OW21583   5.091   3.031   5.427  0.2538  0.5212 -0.2319
 5453SOL    HW221584   5.005   3.070   5.410 -0.0575 -0.3133 -0.6332
 5453SOL    HW321585   5.071   2.947   5.469  0.9040  0.7401  0.5222
 5453SOL    MW421586   5.077   3.025   5.430  0.4151 -0.6174  0.0278
 5454SOL     OW21587   1.107   1.391   5.185 -0.3906  0.2540 -0.4230
 5454SOL    HW221588   1.171   1.334   5.142  0.0733  1.0529 -0.8018
 5454SOL    HW321589   1.091   1.349   5.270  2.1249  1.0378  0.5461
 5454SOL    MW421590   1.113   1.378   5.191 -0.6667  0.2756 -0.0085
 5455SOL     OW21591   1.109   3.116   1.403  0.3057  0.1285 -0.1009
 5455SOL    HW221592   1.080   3.202   1.433 -0.3009  0.2090 -0.8718
 5455SOL    HW321593   1.038   3.057   1.429 -0.3847  0.2501 -1.5987
 5455SOL    MW421594   1.096   3.120   1.410  0.2769 -0.1109 -0.2993
 5456SOL     OW21595   1.763   2.822   2.150  0.3919  0.2906 -0.0610
 5456SOL    HW221596   1.806   2.906   2.164  1.7965 -0.6784  1.8281
 5456SOL    HW321597   1.751   2.816   2.055  0.2460  2.5873 -0.2321
 5456SOL    MW421598   1.767   2.832   2.140 -0.2882 -0.1074 -0.0851
 5457SOL     OW21599   6.318   0.188   1.754 -0.3210 -0.0465  0.6883
 5457SOL    HW221600   6.347   0.145   1.673 -0.9252 -1.1162  1.0245
 5457SOL    HW321601   6.320   0.119   1.820 -0.7117  0.5944  1.3840
 5457SOL    MW421602   6.322   0.173   1.752  0.2563  0.2257  0.1379
 5458SOL     OW21603   1.096   2.617   2.576 -0.2544  0.6283 -0.0256
 5458SOL    HW221604   1.188   2.590   2.567 -0.3674 -0.1213  0.8485
 5458SOL    HW321605   1.081   2.678   2.504  1.1513  1.3394  0.2449
 5458SOL    MW421606   1.106   2.622   2.566  0.0872 -0.6646  0.0977
 5459SOL     OW21607   3.406   1.453   0.935  0.1948  0.6390 -0.2896
 5459SOL    HW221608   3.470   1.381   0.939  0.7277  1.0778 -0.6799
 5459SOL    HW321609   3.321   1.409   0.935  0.4472  0.0788  1.2176
 5459SOL    MW421610   3.403   1.438   0.935 -0.8100 -0.1830  0.3541
 5460SOL     OW21611   4.701   1.603   6.153  0.4257  0.0066 -0.2600
 5460SOL    HW221612   4.789   1.640   6.147  0.3386  0.1306 -0.7399
 5460SOL    HW321613   4.715   1.519   6.198  0.6218  0.5936  0.8127
 5460SOL    MW421614   4.715   1.597   6.158 -0.2819  0.0477 -0.3473
 5461SOL     OW21615   1.271   2.010   3.626  0.1507  0.5455 -0.1457
 5461SOL    HW221616   1.332   1.937   3.628 -0.0073  0.3952 -0.7389
 5461SOL    HW321617   1.241   2.018   3.717  1.5582  1.0621  0.3078
 5461SOL    MW421618   1.275   2.002   3.638  0.6310  0.4962  0.5542
 5462SOL     OW21619   4.752   2.705   0.350 -0.5730 -0.0060 -0.1294
 5462SOL    HW221620   4.769   2.613   0.370 -1.2929 -0.0930  0.1270
 5462SOL    HW321621   4.833   2.737   0.310 -0.5857 -0.9472 -0.9156
 5462SOL    MW421622   4.765   2.697   0.348 -0.5571  0.0436 -0.2518
 5463SOL     OW21623   2.690   2.542   4.112 -0.2816  0.8111 -0.3466
 5463SOL    HW221624   2.601   2.523   4.082 -0.9127  1.7058  0.8577
 5463SOL    HW321625   2.726   2.457   4.135 -0.1737  0.2314 -2.4486
 5463SOL    MW421626   2.683   2.528   4.111 -0.2920  0.0925  0.5570
 5464SOL     OW21627   1.581   2.261   5.619 -0.6471 -0.1493 -0.3112
 5464SOL    HW221628   1.579   2.356   5.626 -1.1101 -0.2831  2.7287
 5464SOL    HW321629   1.672   2.238   5.638 -1.3425 -0.3939  3.4828
 5464SOL    MW421630   1.593   2.270   5.622 -0.4373 -0.2056 -0.1296
 5465SOL     OW21631   4.174   2.743   4.474  0.0119  0.2754 -0.5025
 5465SOL    HW221632   4.252   2.782   4.515  0.1293 -0.7970  0.3281
 5465SOL    HW321633   4.204   2.714   4.388  0.5248 -0.0741 -0.2118
 5465SOL    MW421634   4.188   2.744   4.468  0.5068 -0.5857  1.1150
 5466SOL     OW21635   6.240   0.284   0.824 -0.1034 -0.1706 -0.3837
 5466SOL    HW221636   6.238   0.373   0.859 -1.2727 -0.0946 -0.6101
 5466SOL    HW321637   6.205   0.292   0.735 -1.8609 -1.0886  0.1885
 5466SOL    MW421638   6.235   0.296   0.817 -0.6730  0.7423  0.0652
 5467SOL     OW21639   1.234   3.946   6.159  0.1243 -0.0099  0.0301
 5467SOL    HW221640   1.162   3.914   6.105  0.9667 -0.9074 -0.5991
 5467SOL    HW321641   1.247   3.877   6.224 -1.7431  1.6225  2.3031
 5467SOL    MW421642   1.227   3.933   6.161 -0.4966 -0.0600 -0.0936
 5468SOL     OW21643   0.135   2.797   2.953  0.6345 -0.3630 -0.0382
 5468SOL    HW221644   0.071   2.868   2.952 -0.8924 -1.5491  2.5406
 5468SOL    HW321645   0.095   2.729   2.899 -1.1142 -1.6200  2.6244
 5468SOL    MW421646   0.121   2.798   2.946  0.1471 -0.4778  0.5508
 5469SOL     OW21647   4.640   1.422   0.978 -0.6833 -0.1659 -0.1741
 5469SOL    HW221648   4.658   1.511   1.008 -0.0969 -0.6545  1.0091
 5469SOL    HW321649   4.655   1.424   0.884  2.7210  0.2287  0.2483
 5469SOL    MW421650   4.645   1.434   0.970  0.2370 -0.1866 -0.8447
 5470SOL     OW21651   0.721   5.674   5.115  0.1439  0.5721  0.0219
 5470SOL    HW221652   0.702   5.759   5.076  0.2189 -0.0160 -1.3258
 5470SOL    HW321653   0.736   5.694   5.208 -0.4394  1.9369 -0.1494
 5470SOL    MW421654   0.720   5.688   5.122 -0.3330 -0.2008 -0.1279
 5471SOL     OW21655   5.262   2.599   5.539 -0.3459  0.2134  0.1761
 5471SOL    HW221656   5.261   2.513   5.498 -0.8393  0.4365 -0.2919
 5471SOL    HW321657   5.297   2.583   5.627 -0.9755 -0.5513  0.3003
 5471SOL    MW421658   5.266   2.586   5.545 -0.0153 -0.5831 -0.1321
 5472SOL     OW21659   3.580   0.143   5.587  0.2494 -0.0655  0.0893
 5472SOL    HW221660   3.670   0.146   5.553  0.4672 -2.2200  0.3402
 5472SOL    HW321661   3.546   0.059   5.556 -0.9078 -0.2878  1.8492
 5472SOL    MW421662   3.587   0.132   5.578  0.3826  0.2910  0.1268
 5473SOL     OW21663   5.798   0.845   2.055  0.0366 -0.2853  0.1218
 5473SOL    HW221664   5.713   0.884   2.037 -0.2619 -1.6976 -1.7684
 5473SOL    HW321665   5.861   0.913   2.031 -0.5218  0.4978  0.8233
 5473SOL    MW421666   5.796   0.860   2.050  0.4867  0.0222 -0.0199
 5474SOL     OW21667   4.620   4.354   3.260  0.0997  0.1517 -0.5464
 5474SOL    HW221668   4.635   4.343   3.354 -2.0717 -0.7401 -0.2622
 5474SOL    HW321669   4.696   4.312   3.219  0.6977 -0.1130  0.7679
 5474SOL    MW421670   4.632   4.347   3.267  0.2043  0.2033  0.0939
 5475SOL     OW21671   5.763   0.322   0.422 -0.0926 -0.0391  0.2364
 5475SOL    HW221672   5.672   0.342   0.400 -0.2243  0.1861  0.9646
 5475SOL    HW321673   5.766   0.227   0.430 -0.2616 -0.0457  0.2159
 5475SOL    MW421674   5.752   0.312   0.420  0.2520 -0.0513  0.3993
 5476SOL     OW21675   4.724   1.183   1.139  0.6147  0.1103 -0.0645
 5476SOL    HW221676   4.699   1.117   1.074 -0.5820 -0.5507  1.0098
 5476SOL    HW321677   4.679   1.263   1.110 -0.9141 -0.4865  0.5622
 5476SOL    MW421678   4.714   1.185   1.126  0.2561 -0.4468 -0.3242
 5477SOL     OW21679   1.167   4.600   3.962  0.1872 -0.3344 -0.6319
 5477SOL    HW221680   1.181   4.510   3.992 -0.8388 -0.3198 -0.0462
 5477SOL    HW321681   1.248   4.623   3.915  1.0849 -1.0187  0.5302
 5477SOL    MW421682   1.180   4.591   3.960 -0.0835  0.4452 -0.1765
 5478SOL     OW21683   4.588   0.982   0.930  0.3477  0.2151  0.1346
 5478SOL    HW221684   4.612   1.021   0.846  1.2010 -0.2303  0.1543
 5478SOL    HW321685   4.507   1.026   0.955  0.0060  0.2422 -0.9861
 5478SOL    MW421686   4.581   0.993   0.922  0.3044  0.0360 -0.1372
 5479SOL     OW21687   0.041   1.231   6.168 -0.0772 -0.0765 -0.2016
 5479SOL    HW221688   0.032   1.306   6.110 -1.5780 -0.1760 -0.1191
 5479SOL    HW321689   0.132   1.202   6.156  0.2632  1.2215 -0.8580
 5479SOL    MW421690   0.052   1.237   6.159  0.3195  0.2774  0.2002
 5480SOL     OW21691   5.153   2.899   4.047  0.4372 -0.6904  0.4621
 5480SOL    HW221692   5.174   2.818   4.001  2.5551  0.4457 -0.7446
 5480SOL    HW321693   5.072   2.880   4.095 -0.4535 -2.7308 -1.6813
 5480SOL    MW421694   5.145   2.886   4.047 -0.3320 -0.0468 -0.4108
 5481SOL     OW21695   3.799   0.503   5.379  0.1833 -0.0673 -0.5260
 5481SOL    HW221696   3.707   0.522   5.362  0.8412  1.4946 -2.8103
 5481SOL    HW321697   3.819   0.551   5.459 -0.9807 -0.4123 -0.0121
 5481SOL    MW421698   3.790   0.512   5.387  0.7168 -0.8232  0.3483
 5482SOL     OW21699   6.182   5.506   5.900  0.0514 -0.3885 -0.5584
 5482SOL    HW221700   6.111   5.442   5.907  0.7564 -1.1893 -0.5465
 5482SOL    HW321701   6.244   5.481   5.968  0.4589  0.1421 -0.7310
 5482SOL    MW421702   6.181   5.494   5.910 -0.2947  0.1804  0.0292
 5483SOL     OW21703   2.688   3.984   0.656  0.2592  0.7314  0.2526
 5483SOL    HW221704   2.768   4.006   0.704  0.0326  0.8999  0.5549
 5483SOL    HW321705   2.623   4.047   0.687 -0.1538  0.2174  0.4556
 5483SOL    MW421706   2.690   3.995   0.667  0.5432  0.0798 -0.4800
 5484SOL     OW21707   4.375   2.353   5.704  0.3016 -0.2255 -0.3913
 5484SOL    HW221708   4.353   2.357   5.611 -2.1996 -1.3584  0.0459
 5484SOL    HW321709   4.393   2.260   5.721  0.9514  0.0026  0.2087
 5484SOL    MW421710   4.374   2.341   5.694 -0.3263 -0.4871  0.2196
 5485SOL     OW21711   1.641   5.612   2.550 -0.6143  0.0248 -0.3260
 5485SOL    HW221712   1.663   5.548   2.618 -1.0648  0.5179  0.2845
 5485SOL    HW321713   1.575   5.568   2.497 -1.6071  0.3148  0.6409
 5485SOL    MW421714   1.635   5.598   2.552  0.0792 -0.2263 -0.0837
 5486SOL     OW21715   4.879   5.272   5.635 -0.2183 -0.0703 -1.0422
 5486SOL    HW221716   4.920   5.216   5.701  0.9783 -1.1693 -2.6526
 5486SOL    HW321717   4.811   5.218   5.595 -1.3024  0.7667 -0.4069
 5486SOL    MW421718   4.875   5.258   5.638 -0.1267 -0.1049  1.1806
 5487SOL     OW21719   3.290   3.309   0.336  0.0373 -0.2910 -0.1052
 5487SOL    HW221720   3.202   3.300   0.372 -0.3406  0.6272 -0.7521
 5487SOL    HW321721   3.278   3.309   0.241  0.5971  0.8869 -0.2026
 5487SOL    MW421722   3.277   3.308   0.328 -0.0372 -0.0577  0.2158
 5488SOL     OW21723   3.016   3.601   0.310 -0.8301 -0.2762  0.0070
 5488SOL    HW221724   2.988   3.682   0.267 -0.0689 -0.0364 -0.0447
 5488SOL    HW321725   2.983   3.609   0.399  0.4228  0.7364  0.4095
 5488SOL    MW421726   3.008   3.613   0.316 -0.1879  0.2607 -0.0183
 5489SOL     OW21727   0.185   3.985   6.175 -0.2987 -0.3178  0.0366
 5489SOL    HW221728   0.154   4.076   6.179  0.4126 -0.1081  1.4154
 5489SOL    HW321729   0.270   3.991   6.132  0.6449 -0.0337  1.8506
 5489SOL    MW421730   0.192   3.998   6.170 -0.1735  0.2681 -0.5234
 5490SOL     OW21731   3.229   4.585   4.096 -0.3826  0.0693  0.1236
 5490SOL    HW221732   3.219   4.658   4.035 -0.6296 -1.4153 -1.6656
 5490SOL    HW321733   3.146   4.538   4.092 -1.1524  0.9682  3.0899
 5490SOL    MW421734   3.217   4.589   4.088  0.3332 -0.1272  0.2841
 5491SOL     OW21735   4.439   3.804   4.419  0.1603  0.2278  0.2235
 5491SOL    HW221736   4.391   3.792   4.337 -0.2964  1.6818  0.2520
 5491SOL    HW321737   4.524   3.763   4.403  0.3015  1.0064 -1.2101
 5491SOL    MW421738   4.444   3.797   4.406  0.0412 -0.1378 -0.4240
 5492SOL     OW21739   6.098   1.761   6.069  0.2833 -0.7203 -0.5376
 5492SOL    HW221740   6.024   1.766   6.129  0.5413 -3.6427  0.1720
 5492SOL    HW321741   6.124   1.853   6.055 -1.3319  0.1958  1.8319
 5492SOL    MW421742   6.092   1.774   6.075  0.2494  0.2342  0.4602
 5493SOL     OW21743   0.172   4.565   4.875 -0.0163  0.1991 -0.7181
 5493SOL    HW221744   0.155   4.515   4.955 -0.0450  0.3310 -0.6411
 5493SOL    HW321745   0.187   4.499   4.808 -0.9343  0.0830 -0.8101
 5493SOL    MW421746   0.172   4.550   4.877  0.2294 -0.2284 -0.2619
 5494SOL     OW21747   5.958   6.012   2.690  0.0344  0.4703 -0.5387
 5494SOL    HW221748   5.964   6.103   2.659 -2.0327  0.1044 -2.2585
 5494SOL    HW321749   6.008   5.962   2.626  0.6952  0.3111  0.0889
 5494SOL    MW421750   5.966   6.018   2.677 -0.2218 -0.0235 -0.4063
 5495SOL     OW21751   2.630   3.111   2.378  0.8174 -0.1101 -0.1925
 5495SOL    HW221752   2.695   3.113   2.448 -0.2780  0.2980  0.8596
 5495SOL    HW321753   2.591   3.199   2.379  0.5613 -0.2036 -1.1025
 5495SOL    MW421754   2.633   3.123   2.387 -0.6959 -0.1454 -0.1876
 5496SOL     OW21755   0.890   0.708   3.122  0.3090 -0.4485  0.0102
 5496SOL    HW221756   0.855   0.746   3.042 -0.3275 -0.4885  0.2663
 5496SOL    HW321757   0.985   0.716   3.113  0.2014  1.4365  0.1840
 5496SOL    MW421758   0.898   0.714   3.110 -0.5977  0.0400 -0.2122
 5497SOL     OW21759   2.767   1.385   3.563 -0.2656  0.3698  0.0937
 5497SOL    HW221760   2.747   1.302   3.518 -0.3127  0.3245  0.1988
 5497SOL    HW321761   2.794   1.444   3.492  0.5410  0.0265  0.0982
 5497SOL    MW421762   2.768   1.382   3.548 -0.1977 -0.3806 -0.1999
 5498SOL     OW21763   5.531   4.817   3.736 -0.3795 -0.2241 -0.6269
 5498SOL    HW221764   5.509   4.755   3.805  0.1843  1.3928  1.1044
 5498SOL    HW321765   5.478   4.895   3.756 -1.7578 -0.3693 -3.2510
 5498SOL    MW421766   5.521   4.819   3.748 -0.3646  0.0429  0.0703
 5499SOL     OW21767   3.518   1.515   2.745  0.1614 -0.0978  0.0350
 5499SOL    HW221768   3.486   1.535   2.657 -1.4866 -0.5606  0.4749
 5499SOL    HW321769   3.522   1.600   2.789  0.1048  0.0372 -0.2194
 5499SOL    MW421770   3.514   1.529   2.739  0.1981  0.1324 -0.2850
 5500SOL     OW21771   2.270   4.414   5.193  0.1007  0.1807 -0.0529
 5500SOL    HW221772   2.314   4.481   5.140 -0.2193  0.2522 -0.2331
 5500SOL    HW321773   2.235   4.353   5.128  1.7427 -1.0354  0.1516
 5500SOL    MW421774   2.271   4.415   5.177  0.5347  0.7003 -0.3634
 5501SOL     OW21775   4.353   2.680   5.762 -0.3989 -0.1680  0.3898
 5501SOL    HW221776   4.439   2.687   5.804  0.3665 -0.6526 -1.0371
 5501SOL    HW321777   4.326   2.590   5.776 -0.6368 -0.0482  0.7322
 5501SOL    MW421778   4.360   2.669   5.770  0.0369  0.0702 -0.0614
 5502SOL     OW21779   2.903   3.427   4.816 -0.6015 -0.1319 -0.0449
 5502SOL    HW221780   2.984   3.382   4.843 -0.6814  0.3048  0.9517
 5502SOL    HW321781   2.896   3.502   4.875 -1.2695  0.3444 -0.7139
 5502SOL    MW421782   2.913   3.431   4.827  0.3016  0.2856 -0.1146
 5503SOL     OW21783   6.391   3.450   3.985  0.2193 -0.2460  0.4851
 5503SOL    HW221784   6.419   3.359   3.995  0.6894 -0.1336  0.1915
 5503SOL    HW321785   6.296   3.444   3.971  0.3793 -0.7519 -0.4591
 5503SOL    MW421786   6.382   3.437   3.985  0.3479  0.1527  0.1043
 5504SOL     OW21787   1.312   3.609   4.609 -0.0882 -0.3484 -0.0538
 5504SOL    HW221788   1.327   3.632   4.700  1.7892 -1.5905  0.0007
 5504SOL    HW321789   1.366   3.671   4.559  0.6085 -1.0449 -0.1856
 5504SOL    MW421790   1.321   3.620   4.614  0.0110  0.4085 -0.1691
 5505SOL     OW21791   3.656   1.823   4.423  0.4415 -0.1098  0.3955
 5505SOL    HW221792   3.607   1.769   4.361  0.0807  1.5475 -0.8241
 5505SOL    HW321793   3.590   1.876   4.467  0.8335 -0.2596  1.1875
 5505SOL    MW421794   3.641   1.823   4.421 -0.1336 -0.3894  0.0987
 5506SOL     OW21795   6.026   5.141   0.019 -0.2198  0.2310  0.2600
 5506SOL    HW221796   6.113   5.176  -0.000  0.9876 -1.7754  1.6776
 5506SOL    HW321797   6.031   5.112   0.110 -3.3667  2.7173  1.3771
 5506SOL    MW421798   6.038   5.141   0.029 -0.0981  0.9125  0.1320
 5507SOL     OW21799   0.120   3.684   1.994  0.0508  0.0703 -0.9693
 5507SOL    HW221800   0.049   3.747   2.003  0.6287  0.6560 -0.3939
 5507SOL    HW321801   0.106   3.621   2.064 -0.2483 -0.1541 -1.2343
 5507SOL    MW421802   0.109   3.684   2.004  0.2749 -0.0687  0.5564
 5508SOL     OW21803   6.427   4.077   3.923  0.5632 -0.5908  0.2304
 5508SOL    HW221804   6.336   4.068   3.894  1.0305 -2.9620 -0.7350
 5508SOL    HW321805   6.453   3.989   3.948  2.5542  0.0659  0.6535
 5508SOL    MW421806   6.419   4.064   3.922  0.2497 -0.2556 -0.2219
 5509SOL     OW21807   2.467   4.534   0.070  0.0724  0.3334  0.4022
 5509SOL    HW221808   2.387   4.494   0.037 -0.6303  0.9984  1.2785
 5509SOL    HW321809   2.537   4.482   0.031 -0.6648  1.3902 -2.6027
 5509SOL    MW421810   2.466   4.522   0.060 -0.0829 -0.2020  0.0480
 5510SOL     OW21811   4.775   5.007   1.266  0.3426  0.3338 -0.0861
 5510SOL    HW221812   4.718   5.080   1.290 -0.8761  0.2066 -2.3099
 5510SOL    HW321813   4.842   5.046   1.210  0.6667 -0.0077  0.0552
 5510SOL    MW421814   4.777   5.022   1.262  0.1087 -0.0277 -0.1430
 5511SOL     OW21815   5.334   6.007   0.878 -0.2454 -0.1777 -0.6675
 5511SOL    HW221816   5.313   5.991   0.970  1.4851  0.0511 -0.2006
 5511SOL    HW321817   5.257   6.051   0.843  0.2752  2.7992  1.5475
 5511SOL    MW421818   5.321   6.011   0.885 -0.5554 -0.2426 -0.2677
 5512SOL     OW21819   5.533   2.822   1.101 -0.5551 -0.4024  0.0684
 5512SOL    HW221820   5.458   2.767   1.077 -1.9370  0.9953  0.9628
 5512SOL    HW321821   5.580   2.835   1.019 -0.6147 -2.2800 -0.2938
 5512SOL    MW421822   5.529   2.817   1.087 -0.0030 -0.0342 -1.0211
 5513SOL     OW21823   0.719   6.417   0.872  0.1562  0.4093 -0.5610
 5513SOL    HW221824   0.663   6.386   0.801 -0.2907  1.5937 -0.7476
 5513SOL    HW321825   0.808   6.394   0.844 -0.1904 -1.6274 -0.1849
 5513SOL    MW421826   0.723   6.410   0.859  0.1466 -0.1505 -0.6427
 5514SOL     OW21827   1.042   3.299   0.493 -0.4765  0.3457  0.1498
 5514SOL    HW221828   1.107   3.354   0.450 -0.7702  2.0622  1.7809
 5514SOL    HW321829   1.027   3.341   0.578 -2.7871 -0.6894  0.3316
 5514SOL    MW421830   1.049   3.312   0.499  0.3732  0.3193  0.3809
 5515SOL     OW21831   2.372   6.334   2.722  0.4110  0.3521  1.2808
 5515SOL    HW221832   2.334   6.268   2.780 -0.0167  1.0320  1.7935
 5515SOL    HW321833   2.432   6.286   2.666 -0.4362 -0.5925  1.1618
 5515SOL    MW421834   2.375   6.319   2.722  0.1350  0.2215  0.4461
 5516SOL     OW21835   4.666   5.571   5.193 -0.1761  0.2144 -0.5292
 5516SOL    HW221836   4.687   5.602   5.281 -1.4402 -0.3106 -0.0150
 5516SOL    HW321837   4.748   5.577   5.145  0.7047 -0.1053  0.8715
 5516SOL    MW421838   4.680   5.576   5.198 -0.4737  0.4052  0.4040
 5517SOL     OW21839   2.078   4.280   6.007  0.3195  0.5400 -0.7725
 5517SOL    HW221840   1.985   4.282   6.029  0.1117  0.3864 -1.6171
 5517SOL    HW321841   2.104   4.372   6.006  0.9677  0.5313  2.6021
 5517SOL    MW421842   2.069   4.292   6.010  0.2700 -0.0705 -0.6847
 5518SOL     OW21843   1.118   6.031   3.101  0.2915 -0.5846  0.2497
 5518SOL    HW221844   1.066   6.107   3.128  0.1434  0.0488 -1.6371
 5518SOL    HW321845   1.056   5.958   3.104 -0.6844  0.0951 -1.5863
 5518SOL    MW421846   1.103   6.032   3.105 -0.5247 -0.1786  0.0435
 5519SOL     OW21847   1.060   5.796   2.364  0.0367 -0.2247  0.3078
 5519SOL    HW221848   1.150   5.794   2.331 -0.4031  1.9720 -1.2360
 5519SOL    HW321849   1.045   5.887   2.388 -1.4358 -0.7785  1.6541
 5519SOL    MW421850   1.070   5.808   2.362  0.4276 -0.5831  0.0906
 5520SOL     OW21851   3.268   1.115   4.992 -0.3610 -0.0422  0.2305
 5520SOL    HW221852   3.292   1.194   5.041  1.9141  0.3883 -1.4441
 5520SOL    HW321853   3.269   1.142   4.900 -3.7660 -1.0255 -0.2421
 5520SOL    MW421854   3.271   1.129   4.987  0.4198  0.1362 -0.2071
 5521SOL     OW21855   0.272   3.379   3.094  0.4311 -0.0121 -0.2651
 5521SOL    HW221856   0.271   3.379   3.190  1.6837  1.8798 -0.2015
 5521SOL    HW321857   0.345   3.322   3.071  0.9285  0.5362 -0.0535
 5521SOL    MW421858   0.281   3.371   3.103  0.2244  0.0575  0.1536
 5522SOL     OW21859   3.290   5.985   3.465  0.3583 -0.5121  0.6563
 5522SOL    HW221860   3.252   6.072   3.453  1.4828  0.3757  2.8933
 5522SOL    HW321861   3.232   5.943   3.529  1.3322 -0.3317  1.6858
 5522SOL    MW421862   3.277   5.991   3.472 -0.2181  0.1424  0.2343
 5523SOL     OW21863   0.266   3.840   5.776  0.3280  0.0311  0.5155
 5523SOL    HW221864   0.204   3.896   5.729 -0.0245 -1.1000 -0.4354
 5523SOL    HW321865   0.308   3.897   5.840 -0.5074  1.2006  0.0381
 5523SOL    MW421866   0.264   3.855   5.778 -0.1608  0.2556 -0.5865
 5524SOL     OW21867   2.451   2.921   4.321 -0.1175 -0.5438 -0.3938
 5524SOL    HW221868   2.442   2.834   4.359 -4.5209 -1.5036 -2.8484
 5524SOL    HW321869   2.468   2.979   4.395 -0.1892 -3.1204  1.7644
 5524SOL    MW421870   2.452   2.917   4.336 -0.0545  0.6991  0.2474
 5525SOL     OW21871   5.404   4.710   5.475 -0.4950  0.0255  0.6680
 5525SOL    HW221872   5.378   4.630   5.519 -0.3599 -0.9440 -0.9475
 5525SOL    HW321873   5.381   4.780   5.536 -1.6298 -1.1570  1.6335
 5525SOL    MW421874   5.398   4.709   5.489 -0.8644  0.8720  0.5879
 5526SOL     OW21875   5.843   2.256   0.278 -0.0832  0.2358 -0.3103
 5526SOL    HW221876   5.797   2.331   0.315 -0.2654  0.2904 -0.6516
 5526SOL    HW321877   5.911   2.236   0.343  0.0036  0.7298 -0.2473
 5526SOL    MW421878   5.846   2.263   0.292 -0.1674 -0.1222  0.2743
 5527SOL     OW21879   4.041   1.392   3.119 -0.1879 -0.5741 -1.1803
 5527SOL    HW221880   3.958   1.426   3.084 -1.3354 -1.9626  0.0341
 5527SOL    HW321881   4.014   1.322   3.178  1.9045 -1.3477 -1.0793
 5527SOL    MW421882   4.026   1.387   3.122 -0.6691  0.2579 -0.2833
 5528SOL     OW21883   4.617   5.606   1.477 -0.4087 -0.9956 -0.6551
 5528SOL    HW221884   4.663   5.591   1.560 -0.9386  0.3114 -0.0889
 5528SOL    HW321885   4.539   5.551   1.483 -1.0632 -0.0223  0.2831
 5528SOL    MW421886   4.613   5.597   1.489  0.1896  0.2349 -0.0849
 5529SOL     OW21887   2.028   0.156   4.696 -0.0675 -0.3080  0.4627
 5529SOL    HW221888   1.985   0.074   4.672  0.3193 -0.3123 -0.2425
 5529SOL    HW321889   2.007   0.216   4.624 -0.4033  0.2354  1.0052
 5529SOL    MW421890   2.020   0.153   4.683  0.9440  0.3146  0.1834
 5530SOL     OW21891   3.530   5.666   1.026 -0.0779 -0.0372  0.3972
 5530SOL    HW221892   3.588   5.634   1.096  1.7382  1.3164 -0.4089
 5530SOL    HW321893   3.487   5.587   0.994  1.0064 -1.0659  1.3345
 5530SOL    MW421894   3.532   5.651   1.031 -0.0670  0.0422  0.2482
 5531SOL     OW21895   3.995   0.999   4.346  0.0017 -0.1370 -0.6627
 5531SOL    HW221896   4.087   0.974   4.336 -0.2891 -0.8188 -1.8970
 5531SOL    HW321897   3.969   0.961   4.430  0.0951 -2.5257 -1.6316
 5531SOL    MW421898   4.004   0.990   4.356 -0.7351  0.0126  0.1346
 5532SOL     OW21899   1.982   5.247   2.161  0.4938  0.1040 -0.1797
 5532SOL    HW221900   1.952   5.266   2.250 -0.9097 -1.3125 -0.2990
 5532SOL    HW321901   1.902   5.253   2.108  1.2181  0.4030 -1.2621
 5532SOL    MW421902   1.967   5.250   2.166  0.1028 -0.0352  0.3247
 5533SOL     OW21903   4.164   3.585   0.753  0.1100 -1.0298  0.1144
 5533SOL    HW221904   4.164   3.609   0.660  1.6709  0.3571  0.4238
 5533SOL    HW321905   4.103   3.646   0.793 -0.3818 -1.4715  0.0457
 5533SOL    MW421906   4.156   3.596   0.746 -0.2929  0.0235 -0.4474
 5534SOL     OW21907   4.217   1.279   6.148 -0.3203  0.0277 -0.1762
 5534SOL    HW221908   4.260   1.359   6.178 -1.5086  0.4325  0.5079
 5534SOL    HW321909   4.268   1.251   6.072  2.7385 -0.9140  2.0019
 5534SOL    MW421910   4.230   1.286   6.142  0.4014 -0.1208 -0.0449
 5535SOL     OW21911   0.007   3.313   2.107 -0.9546  0.0691  0.4213
 5535SOL    HW221912   0.057   3.253   2.163  0.3054  1.3083  0.6917
 5535SOL    HW321913   0.052   3.308   2.022 -1.9961 -0.7468 -0.1021
 5535SOL    MW421914   0.020   3.305   2.103  0.1867  0.0230  0.0892
 5536SOL     OW21915   4.208   5.635   5.072 -0.1349 -0.4719 -0.6991
 5536SOL    HW221916   4.220   5.705   5.007  1.4926 -0.6398 -0.6269
 5536SOL    HW321917   4.141   5.578   5.034 -0.3643  0.2985 -1.4777
 5536SOL    MW421918   4.201   5.636   5.058  0.0222 -0.4399  0.0368
 5537SOL     OW21919   1.440   6.219   1.252  0.0872 -0.1066  0.4920
 5537SOL    HW221920   1.416   6.241   1.162  1.4461 -1.2679 -0.1761
 5537SOL    HW321921   1.363   6.245   1.304 -0.0746  2.1834 -0.7444
 5537SOL    MW421922   1.426   6.226   1.247  0.1073 -0.6678 -0.3026
 5538SOL     OW21923   3.766   1.895   5.449  0.1495  0.0643 -1.0590
 5538SOL    HW221924   3.854   1.859   5.461 -0.4761 -1.0886  0.5024
 5538SOL    HW321925   3.771   1.984   5.483 -0.0014 -1.0718  2.3629
 5538SOL    MW421926   3.778   1.902   5.455 -0.6572 -0.3000 -0.5654
 5539SOL     OW21927   3.175   5.171   0.077 -0.3543 -0.3444 -0.0526
 5539SOL    HW221928   3.142   5.237   0.138  0.3572 -1.9941  2.2258
 5539SOL    HW321929   3.109   5.102   0.077 -1.5352  0.5868 -3.1000
 5539SOL    MW421930   3.162   5.171   0.085  0.3310  0.1672  0.1647
 5540SOL     OW21931   4.362   4.815   3.652  0.2236 -0.2015  0.6254
 5540SOL    HW221932   4.391   4.822   3.561  0.4806 -0.2619  0.7023
 5540SOL    HW321933   4.370   4.722   3.672 -0.9137 -0.3761  0.3543
 5540SOL    MW421934   4.366   4.803   3.642  0.0102  0.0048  0.3940
 5541SOL     OW21935   2.283   5.648   3.562 -0.1730 -0.4114  0.2488
 5541SOL    HW221936   2.291   5.673   3.654 -0.0498  0.4220  0.0211
 5541SOL    HW321937   2.373   5.637   3.533 -0.0938  1.2259 -0.2563
 5541SOL    MW421938   2.296   5.650   3.570  0.2495 -0.3211  0.1043
 5542SOL     OW21939   6.403   4.539   5.717 -0.3129 -0.0766  0.0524
 5542SOL    HW221940   6.313   4.566   5.734  0.1583  0.9847  0.9631
 5542SOL    HW321941   6.408   4.531   5.622 -1.2007  0.4286 -0.0459
 5542SOL    MW421942   6.392   4.541   5.707 -0.2113  0.2192 -0.4357
 5543SOL     OW21943   2.586   5.289   4.675  0.0551  0.1912  0.3779
 5543SOL    HW221944   2.660   5.345   4.701  0.8278 -1.4427  1.9178
 5543SOL    HW321945   2.608   5.260   4.587  1.4400 -0.5248  0.9338
 5543SOL    MW421946   2.599   5.293   4.667  0.2931  0.3087  0.2969
 5544SOL     OW21947   6.116   2.461   0.488  0.4128 -0.2569  0.9038
 5544SOL    HW221948   6.134   2.460   0.394 -0.6749 -1.7998  0.6678
 5544SOL    HW321949   6.058   2.536   0.500  0.6859  0.0488  0.3634
 5544SOL    MW421950   6.111   2.471   0.477  0.3489 -0.3387  0.1624
 5545SOL     OW21951   5.086   3.640   5.636  0.5599  0.7046 -0.4052
 5545SOL    HW221952   5.046   3.575   5.694 -3.9769  3.0288 -0.4482
 5545SOL    HW321953   5.133   3.589   5.571 -1.9446 -2.5102  0.0675
 5545SOL    MW421954   5.087   3.625   5.635  0.4543  0.3766  0.0964
 5546SOL     OW21955   0.586   1.368   6.391 -0.1810 -0.1279 -0.4901
 5546SOL    HW221956   0.576   1.430   6.463  0.7156 -0.9443  0.3612
 5546SOL    HW321957   0.512   1.308   6.400  0.0402 -0.3473 -0.1202
 5546SOL    MW421958   0.575   1.368   6.401 -0.1732 -0.1283  0.0728
 5547SOL     OW21959   4.612   1.330   3.233 -0.1377  0.3532  0.1321
 5547SOL    HW221960   4.588   1.412   3.190  0.1732 -0.4546 -1.6877
 5547SOL    HW321961   4.668   1.356   3.306 -1.8348  1.8793  0.9857
 5547SOL    MW421962   4.616   1.344   3.237 -0.0316 -0.0457  0.0533
 5548SOL     OW21963   0.066   0.106   5.851 -0.6966 -0.2602  0.1606
 5548SOL    HW221964   0.040   0.194   5.823 -1.8032 -0.2903  1.0039
 5548SOL    HW321965   0.122   0.073   5.781  0.4968  1.4611  0.2404
 5548SOL    MW421966   0.070   0.113   5.838  0.1515  0.2300 -0.2302
 5549SOL     OW21967   4.211   2.630   4.967 -0.2804 -0.2920  0.0695
 5549SOL    HW221968   4.175   2.620   4.879  0.4722  1.7383 -0.5322
 5549SOL    HW321969   4.280   2.564   4.972 -1.3910 -1.5349 -0.2163
 5549SOL    MW421970   4.215   2.620   4.956 -0.0832  0.0440  0.1724
 5550SOL     OW21971   4.989   4.466   1.725  0.1196 -0.7202 -0.2567
 5550SOL    HW221972   5.052   4.440   1.793  1.1003 -0.5732 -1.0792
 5550SOL    HW321973   4.951   4.547   1.758  0.6365 -0.6130  0.1008
 5550SOL    MW421974   4.992   4.473   1.738 -0.5479 -0.1709 -0.2232
 5551SOL     OW21975   5.209   2.400   6.270 -0.6523  0.1061 -0.3104
 5551SOL    HW221976   5.261   2.390   6.349  1.5435 -0.2361 -1.7126
 5551SOL    HW321977   5.133   2.344   6.283 -0.5271  0.3399  1.6686
 5551SOL    MW421978   5.206   2.391   6.282  0.2662  0.0936  0.4051
 5552SOL     OW21979   4.336   0.128   1.946 -0.0599 -0.2608  0.1823
 5552SOL    HW221980   4.242   0.127   1.965  0.0270 -0.0754  0.6231
 5552SOL    HW321981   4.374   0.181   2.015  0.3698 -0.3124 -0.0124
 5552SOL    MW421982   4.329   0.135   1.958  0.0908 -0.2321 -0.0828
 5553SOL     OW21983   3.929   3.116   4.999 -0.6397  0.4927 -0.5662
 5553SOL    HW221984   3.861   3.183   4.989 -1.5871 -0.1939  0.8633
 5553SOL    HW321985   4.003   3.162   5.039 -1.0767  0.8241 -0.1241
 5553SOL    MW421986   3.930   3.131   5.003  0.3546 -0.0124  0.0216
 5554SOL     OW21987   6.336   2.810   2.506 -0.6562 -0.3608 -0.4624
 5554SOL    HW221988   6.309   2.855   2.426  0.2760  1.2287  0.0544
 5554SOL    HW321989   6.429   2.791   2.491 -0.9857 -1.9827 -0.5798
 5554SOL    MW421990   6.345   2.813   2.493  0.2890  0.4869 -0.1000
 5555SOL     OW21991   0.015   0.237   2.798 -0.5219 -0.2308 -0.2542
 5555SOL    HW221992  -0.012   0.288   2.721 -0.0036  0.0579 -0.2523
 5555SOL    HW321993  -0.020   0.149   2.783 -0.4742 -0.1595 -0.7933
 5555SOL    MW421994   0.007   0.232   2.786 -0.0328  0.1178 -0.5477
 5556SOL     OW21995   3.605   6.119   3.361  0.0212 -0.0245  0.0074
 5556SOL    HW221996   3.565   6.086   3.442 -1.5772  0.6775 -0.4514
 5556SOL    HW321997   3.684   6.067   3.350 -1.3067 -2.2809  0.4373
 5556SOL    MW421998   3.610   6.107   3.370 -0.2354  0.5917  0.9537
 5557SOL     OW21999   0.415   3.941   6.024  0.3729 -0.3541 -0.4273
 5557SOL    HW222000   0.441   3.959   6.114 -0.5072 -1.6095  0.0980
 5557SOL    HW322001   0.413   3.846   6.018  1.4717 -0.3137 -2.0947
 5557SOL    MW422002   0.418   3.931   6.035 -0.3213 -0.4258  0.0896
 5558SOL     OW22003   2.288   3.472   2.173 -0.1892 -0.2905  0.2400
 5558SOL    HW222004   2.221   3.417   2.214  0.9455 -1.1175  1.0475
 5558SOL    HW322005   2.246   3.557   2.162 -2.1988 -1.4155 -1.5657
 5558SOL    MW422006   2.273   3.476   2.177  0.1632  0.2048  0.2337
 5559SOL     OW22007   1.333   2.059   6.143 -0.1393  0.0323  0.0806
 5559SOL    HW222008   1.339   1.972   6.184 -0.9741 -0.9019 -1.6711
 5559SOL    HW322009   1.387   2.053   6.065 -3.2502 -0.3350 -2.2594
 5559SOL    MW422010   1.341   2.046   6.138 -0.3403  0.4173  0.2896
 5560SOL     OW22011   1.975   0.380   2.991 -0.5555 -0.3057 -0.0338
 5560SOL    HW222012   2.054   0.400   2.941 -1.3558  1.2571 -0.7719
 5560SOL    HW322013   1.993   0.296   3.033  0.2682 -1.6242 -2.7879
 5560SOL    MW422014   1.988   0.371   2.990  0.0351 -0.0609  0.3520
 5561SOL     OW22015   3.219   2.105   3.371  0.5154 -0.8883 -0.3698
 5561SOL    HW222016   3.210   2.100   3.275 -2.1555  0.4983 -0.2789
 5561SOL    HW322017   3.177   2.025   3.403 -3.3976  0.9805 -0.3053
 5561SOL    MW422018   3.212   2.093   3.362  0.0855 -0.1030 -0.1327
 5562SOL     OW22019   3.814   5.502   6.152  0.1810  0.1029  0.2983
 5562SOL    HW222020   3.756   5.556   6.099 -0.1964  0.9748  1.5546
 5562SOL    HW322021   3.884   5.562   6.179  2.0195 -1.0392 -1.5947
 5562SOL    MW422022   3.815   5.517   6.148  0.0641 -0.0986  0.3402
 5563SOL     OW22023   3.309   5.810   2.591  0.5469  0.2819  0.6032
 5563SOL    HW222024   3.228   5.765   2.570  0.6896  0.4401 -0.3198
 5563SOL    HW322025   3.285   5.902   2.600  0.3846  0.1400  1.7543
 5563SOL    MW422026   3.295   5.816   2.589 -0.1670  0.2926 -0.2435
 5564SOL     OW22027   1.125   2.256   1.991  0.3922  0.2163  0.1514
 5564SOL    HW222028   1.190   2.325   1.996  0.8072 -0.2756  3.1317
 5564SOL    HW322029   1.055   2.284   2.049 -0.8021 -0.5536 -0.8488
 5564SOL    MW422030   1.124   2.269   1.999  0.4385  0.7903  0.3662
 5565SOL     OW22031   4.057   3.355   4.015  0.4420 -0.0373 -0.4525
 5565SOL    HW222032   4.036   3.269   3.980  1.0083 -0.2923 -0.1691
 5565SOL    HW322033   4.129   3.340   4.077 -0.5017  0.4232  0.7870
 5565SOL    MW422034   4.064   3.342   4.018  0.2861 -0.4627  0.7364
 5566SOL     OW22035   0.151   0.327   0.978  0.6277  0.2117 -0.1320
 5566SOL    HW222036   0.228   0.279   0.947  0.6937  0.0683  0.2445
 5566SOL    HW322037   0.099   0.261   1.023  0.8577  0.5494  0.6400
 5566SOL    MW422038   0.155   0.312   0.980  0.8431  0.0412  0.0562
 5567SOL     OW22039   0.784   1.265   4.004 -0.3109 -0.0797  0.4706
 5567SOL    HW222040   0.745   1.194   3.953  2.2513 -1.8813  0.8352
 5567SOL    HW322041   0.744   1.258   4.091 -1.8097  0.5119 -0.1322
 5567SOL    MW422042   0.773   1.255   4.009 -0.5972  0.3246 -0.2242
 5568SOL     OW22043   2.500   2.238   3.131 -0.4016  0.0020  0.2000
 5568SOL    HW222044   2.588   2.201   3.122  0.7109  2.5633 -0.4114
 5568SOL    HW322045   2.493   2.257   3.225 -0.1438  0.1219  0.1977
 5568SOL    MW422046   2.511   2.236   3.142  0.5585 -0.2711 -0.1310
 5569SOL     OW22047   2.860   0.136   5.073  0.2206 -0.3621 -0.2782
 5569SOL    HW222048   2.775   0.155   5.114  0.1995  0.4126 -0.6618
 5569SOL    HW322049   2.919   0.203   5.107  0.4643 -0.3695 -0.6744
 5569SOL    MW422050   2.856   0.147   5.083 -0.9749  0.3501 -0.1708
 5570SOL     OW22051   1.660   1.623   3.909 -0.0880 -0.6054 -0.5934
 5570SOL    HW222052   1.662   1.584   3.996  0.2031 -0.9054 -0.7362
 5570SOL    HW322053   1.596   1.571   3.861 -2.2359  1.1420  0.1879
 5570SOL    MW422054   1.652   1.611   3.915  0.7630  0.3869 -0.1099
 5571SOL     OW22055   2.331   0.627   3.739 -0.1062 -0.0418 -0.3511
 5571SOL    HW222056   2.419   0.609   3.771 -0.5440 -0.1368  0.8197
 5571SOL    HW322057   2.272   0.597   3.809 -1.1378 -1.2735 -1.6732
 5571SOL    MW422058   2.335   0.620   3.752 -0.1857  0.8566 -0.2572
 5572SOL     OW22059   3.252   2.328   5.673 -0.0053  0.7469 -0.2936
 5572SOL    HW222060   3.175   2.291   5.716  0.3168 -0.4276 -0.6779
 5572SOL    HW322061   3.245   2.298   5.582 -0.3505  2.6636 -0.9374
 5572SOL    MW422062   3.241   2.319   5.666  0.4459  0.1153  0.0998
 5573SOL     OW22063   3.391   2.923   0.696 -0.6244 -0.3648 -0.4315
 5573SOL    HW222064   3.363   2.831   0.692 -1.8114 -0.0068 -0.7381
 5573SOL    HW322065   3.377   2.956   0.607 -0.7297  0.2571 -0.1900
 5573SOL    MW422066   3.386   2.915   0.684  0.1612 -0.2245  0.0411
 5574SOL     OW22067   4.981   3.939   5.895  0.3667  0.2720  0.4196
 5574SOL    HW222068   4.898   3.912   5.856  0.5834  0.0127  0.1370
 5574SOL    HW322069   4.983   4.034   5.885  1.6676  0.0280 -2.7326
 5574SOL    MW422070   4.970   3.948   5.889 -0.6687 -0.4456 -0.1469
 5575SOL     OW22071   2.690   4.690   3.080  0.0499 -0.6759 -0.0804
 5575SOL    HW222072   2.694   4.594   3.077 -1.0357 -0.8254  1.7124
 5575SOL    HW322073   2.756   4.714   3.145 -1.1875 -0.4075  1.1217
 5575SOL    MW422074   2.699   4.680   3.088 -0.3299  0.7034  0.6962
 5576SOL     OW22075   1.685   3.790   0.939  0.4588  0.2629 -0.4152
 5576SOL    HW222076   1.762   3.741   0.912  0.2569 -0.2168 -0.1339
 5576SOL    HW322077   1.699   3.878   0.905  0.9676  0.0877 -0.6610
 5576SOL    MW422078   1.697   3.795   0.931  0.4663 -0.1648 -0.0722
 5577SOL     OW22079   3.620   2.536   1.492 -0.3577  0.6475 -0.3407
 5577SOL    HW222080   3.659   2.585   1.420  0.2555 -0.0457 -0.4971
 5577SOL    HW322081   3.682   2.547   1.564 -0.4516  0.4856 -0.2359
 5577SOL    MW422082   3.633   2.544   1.492 -0.3820  0.1901 -0.8932
 5578SOL     OW22083   5.342   1.260   2.852 -0.0442 -0.0728  0.5489
 5578SOL    HW222084   5.325   1.312   2.774 -0.1010 -0.5895  0.2123
 5578SOL    HW322085   5.321   1.319   2.925  1.1873  0.8182  0.2140
 5578SOL    MW422086   5.337   1.275   2.852 -0.2726 -0.4919 -0.3899
 5579SOL     OW22087   6.047   3.342   1.040  0.4186  0.1002 -0.0089
 5579SOL    HW222088   5.994   3.292   1.101  0.1440 -0.3641 -0.6164
 5579SOL    HW322089   6.137   3.311   1.055  0.4633  0.5524  0.6941
 5579SOL    MW422090   6.052   3.331   1.050  0.0902 -0.0174 -0.2069
 5580SOL     OW22091   1.265   4.858   2.848  0.7181  0.0735  0.0766
 5580SOL    HW222092   1.256   4.889   2.938  2.2929  1.1099 -0.0694
 5580SOL    HW322093   1.360   4.850   2.836  0.4724 -1.2927 -1.0917
 5580SOL    MW422094   1.276   4.861   2.859 -0.4533  0.1292  0.4511
 5581SOL     OW22095   1.070   0.504   3.347  0.5306  0.5442 -0.2450
 5581SOL    HW222096   1.137   0.438   3.330  0.5343  0.5607 -0.2967
 5581SOL    HW322097   1.051   0.542   3.260  0.6025  0.6823 -0.2006
 5581SOL    MW422098   1.076   0.500   3.333  0.2795 -0.4830  0.1427
 5582SOL     OW22099   0.470   2.103   3.375 -0.8965  0.0003  0.0104
 5582SOL    HW222100   0.481   2.008   3.371 -1.3025 -0.0623  0.2827
 5582SOL    HW322101   0.515   2.129   3.455 -0.1775  0.1317 -0.4312
 5582SOL    MW422102   0.477   2.094   3.385 -0.1246 -0.2684 -0.1157
 5583SOL     OW22103   2.343   3.224   2.554  0.2862 -0.1478 -0.9431
 5583SOL    HW222104   2.310   3.140   2.524  0.2445  0.4725 -2.7734
 5583SOL    HW322105   2.415   3.202   2.614 -0.7518 -1.4644 -0.1361
 5583SOL    MW422106   2.348   3.210   2.558  0.6406 -0.2697  0.3024
 5584SOL     OW22107   5.771   4.979   1.894  0.2421 -0.1600  0.1097
 5584SOL    HW222108   5.694   5.033   1.912 -0.1462 -0.2620 -1.1422
 5584SOL    HW322109   5.832   5.001   1.964  0.3081  2.3342 -0.6397
 5584SOL    MW422110   5.769   4.989   1.906 -0.2753  0.7687  0.1852
 5585SOL     OW22111   4.007   2.438   1.377  0.1375 -0.5759  0.8643
 5585SOL    HW222112   3.988   2.388   1.457 -1.3477  0.1471  1.0008
 5585SOL    HW322113   4.101   2.431   1.366  0.1989 -1.8362  1.9193
 5585SOL    MW422114   4.017   2.430   1.386 -0.3194  0.0676 -0.0696
 5586SOL     OW22115   6.417   5.066   2.287  0.7123  0.3444 -0.3087
 5586SOL    HW222116   6.340   5.095   2.336 -0.6417 -0.3188 -1.9275
 5586SOL    HW322117   6.400   5.096   2.197  0.3180 -3.2683 -1.5860
 5586SOL    MW422118   6.404   5.074   2.281  0.2985  0.2142  0.7371
 5587SOL     OW22119   3.986   4.711   0.953  0.1120  0.2068  0.1589
 5587SOL    HW222120   3.917   4.648   0.975 -0.3030  0.3403 -0.7318
 5587SOL    HW322121   4.045   4.708   1.028 -0.1460 -0.9001  0.3422
 5587SOL    MW422122   3.984   4.702   0.966  0.1766 -0.2163 -0.4250
 5588SOL     OW22123   1.849   1.109   0.341  0.5084  0.3889  0.1426
 5588SOL    HW222124   1.937   1.102   0.303  0.2296  0.6361 -0.5803
 5588SOL    HW322125   1.840   1.201   0.363 -0.2997  0.7922 -1.6797
 5588SOL    MW422126   1.859   1.120   0.339 -0.2937  0.2662 -0.1899
 5589SOL     OW22127   3.592   4.909   5.235 -0.6212 -1.0255  0.1107
 5589SOL    HW222128   3.519   4.919   5.296 -0.4362 -1.1828  0.3589
 5589SOL    HW322129   3.604   4.997   5.197 -1.9842 -1.3324 -1.1392
 5589SOL    MW422130   3.584   4.922   5.238 -0.1584  0.1232  0.0758
 5590SOL     OW22131   6.044   1.437   2.493  0.0755  0.2692 -0.4087
 5590SOL    HW222132   6.052   1.532   2.483  0.8447  0.1171 -1.4520
 5590SOL    HW322133   6.131   1.408   2.520 -0.6184  0.0352  1.7550
 5590SOL    MW422134   6.056   1.446   2.495 -0.0962 -0.1097  0.1829
 5591SOL     OW22135   0.301   2.942   4.169 -0.8755  0.9660 -0.8018
 5591SOL    HW222136   0.335   3.032   4.163  1.1681  0.4519  1.3229
 5591SOL    HW322137   0.376   2.887   4.143 -1.0965 -0.1714  0.8657
 5591SOL    MW422138   0.316   2.947   4.164 -0.2194  0.6917 -0.5240
 5592SOL     OW22139   2.968  -0.006   3.804 -0.3741 -0.0560  0.4073
 5592SOL    HW222140   2.935  -0.058   3.878  0.5673 -0.0214  0.8630
 5592SOL    HW322141   3.007   0.071   3.845  0.8203 -0.3865 -0.0599
 5592SOL    MW422142   2.969  -0.003   3.819 -0.3828  0.1873  0.0269
 5593SOL     OW22143   3.269   0.646   4.509  0.6518 -0.2512  0.1433
 5593SOL    HW222144   3.291   0.554   4.489 -0.9930 -0.4058 -1.1416
 5593SOL    HW322145   3.190   0.663   4.458  0.6753  1.7668  0.7203
 5593SOL    MW422146   3.262   0.636   4.500  0.0973 -0.6661  0.1535
 5594SOL     OW22147   1.205   1.553   3.096  0.0929 -0.1339  0.2469
 5594SOL    HW222148   1.278   1.551   3.159 -0.5353  0.8995  1.0475
 5594SOL    HW322149   1.224   1.628   3.040 -0.7232  0.6063  0.9412
 5594SOL    MW422150   1.217   1.562   3.097  0.2581  0.0147 -0.0826
 5595SOL     OW22151   4.060   4.472   5.246  0.4882 -0.5183  0.3616
 5595SOL    HW222152   4.046   4.479   5.152 -1.1198 -0.9705  0.5339
 5595SOL    HW322153   4.087   4.560   5.273 -0.4531 -0.0005 -0.3214
 5595SOL    MW422154   4.062   4.484   5.237  0.2795  0.2082  0.5558
 5596SOL     OW22155   0.966   1.723   4.329  0.2350  0.0775 -0.0670
 5596SOL    HW222156   0.913   1.652   4.292 -0.2237  0.6425 -0.5006
 5596SOL    HW322157   1.025   1.748   4.258  0.1441  0.3833 -0.0351
 5596SOL    MW422158   0.967   1.717   4.315 -0.3888  0.3238  0.2750
 5597SOL     OW22159   2.807   5.168   2.723  0.0382 -0.1944 -0.7010
 5597SOL    HW222160   2.724   5.210   2.747 -0.1977 -1.3454  0.6852
 5597SOL    HW322161   2.854   5.234   2.673 -1.3563  0.7942 -0.7749
 5597SOL    MW422162   2.802   5.182   2.719  0.5569 -0.0014 -0.4573
 5598SOL     OW22163   6.143   0.298   0.559 -0.2970 -0.2838  0.0070
 5598SOL    HW222164   6.109   0.211   0.579  1.6444 -1.1821 -0.3764
 5598SOL    HW322165   6.070   0.358   0.577 -1.4690 -1.9182  0.8531
 5598SOL    MW422166   6.129   0.295   0.564  0.9036 -0.0727 -0.2129
 5599SOL     OW22167   1.618   3.715   2.326 -0.0791 -0.2980  0.0039
 5599SOL    HW222168   1.680   3.707   2.398  1.1958 -0.0419 -1.0274
 5599SOL    HW322169   1.645   3.795   2.281 -2.4519  0.9873  0.7068
 5599SOL    MW422170   1.630   3.725   2.330 -0.7245 -0.1370  0.1252
 5600SOL     OW22171   5.163   1.706   5.508  0.6825 -0.3178 -0.2736
 5600SOL    HW222172   5.258   1.700   5.522  0.6441  0.2684  0.2708
 5600SOL    HW322173   5.134   1.615   5.502  1.1829 -0.5179  0.2229
 5600SOL    MW422174   5.172   1.693   5.509 -0.3471 -0.2941  0.2586
 5601SOL     OW22175   6.031   0.419   3.095 -0.1783  0.1415 -0.3304
 5601SOL    HW222176   6.056   0.327   3.083 -2.6717 -1.0146  2.3240
 5601SOL    HW322177   6.094   0.453   3.159  0.0510 -0.0141 -0.4673
 5601SOL    MW422178   6.043   0.411   3.102 -0.4989  0.1567 -0.0836
 5602SOL     OW22179   4.993   0.159   0.785 -0.5910 -0.8790  0.2973
 5602SOL    HW222180   5.021   0.170   0.876 -0.6944 -0.3719  0.2692
 5602SOL    HW322181   4.966   0.247   0.757 -2.1462 -1.3360  0.2945
 5602SOL    MW422182   4.993   0.172   0.793 -0.1635  0.6170  0.4352
 5603SOL     OW22183   0.164   3.302   0.458 -0.1403 -0.1110 -0.6186
 5603SOL    HW222184   0.128   3.215   0.474 -1.9671  0.3817 -1.7390
 5603SOL    HW322185   0.232   3.288   0.392 -0.5977 -0.6839 -0.9818
 5603SOL    MW422186   0.168   3.289   0.451  0.1176  0.4024  0.0007
 5604SOL     OW22187   0.001   1.986   0.682 -0.3871  0.0813 -0.1883
 5604SOL    HW222188  -0.059   2.006   0.611 -0.8409 -1.1446 -0.1748
 5604SOL    HW322189   0.080   1.954   0.639 -0.0032  0.9770 -0.1790
 5604SOL    MW422190   0.004   1.984   0.667 -0.0343 -0.0708  0.0646
 5605SOL     OW22191   0.200   0.182   0.109 -0.5335 -0.0883 -0.3161
 5605SOL    HW222192   0.253   0.224   0.042 -1.3011  1.1670 -0.1728
 5605SOL    HW322193   0.175   0.253   0.168 -0.7726 -0.9787  0.7038
 5605SOL    MW422194   0.204   0.197   0.108 -0.0823  0.3715 -0.0480
 5606SOL     OW22195   0.358   2.874   3.789 -0.0903 -0.4532 -0.6860
 5606SOL    HW222196   0.397   2.815   3.724  2.2569 -0.0845  0.2839
 5606SOL    HW322197   0.306   2.816   3.845  0.9719 -1.4060 -0.6301
 5606SOL    MW422198   0.357   2.858   3.788  0.0630  0.6367 -0.6410
 5607SOL     OW22199   2.857   2.770   0.569 -0.4357 -0.0374  0.2579
 5607SOL    HW222200   2.930   2.832   0.570 -0.2392 -0.2618  1.2721
 5607SOL    HW322201   2.876   2.710   0.641 -0.0367 -1.9828 -1.3953
 5607SOL    MW422202   2.869   2.770   0.579  0.2334 -0.5091 -0.3212
 5608SOL     OW22203   2.142   2.457   1.111  0.8601 -0.1575  0.3960
 5608SOL    HW222204   2.104   2.372   1.133  0.2863  0.1514  0.6235
 5608SOL    HW322205   2.071   2.520   1.126  0.7577  0.1997 -1.3438
 5608SOL    MW422206   2.127   2.454   1.116  0.3210 -0.1043  0.5260
 5609SOL     OW22207   0.924   4.142   3.067 -0.1879  0.1381 -0.2276
 5609SOL    HW222208   0.873   4.162   3.145  1.0252 -1.8093  1.1569
 5609SOL    HW322209   0.991   4.210   3.063  0.3114 -0.2573  0.9996
 5609SOL    MW422210   0.926   4.154   3.077 -0.0881  0.8423  0.4449
 5610SOL     OW22211   5.121   3.343   5.166  0.0208 -0.2259  0.4455
 5610SOL    HW222212   5.124   3.366   5.259 -2.8648 -1.2479  0.8791
 5610SOL    HW322213   5.175   3.265   5.159 -0.2058 -0.4773  1.3945
 5610SOL    MW422214   5.129   3.336   5.177  0.4990 -0.2333  0.4646
 5611SOL     OW22215   0.839   3.948   5.485 -0.0348 -0.8723  0.2000
 5611SOL    HW222216   0.823   3.975   5.395 -1.0424 -1.2666  0.2562
 5611SOL    HW322217   0.863   3.855   5.479  1.5887 -0.4823  0.1879
 5611SOL    MW422218   0.840   3.939   5.473 -0.1094 -0.0450 -0.2584
 5612SOL     OW22219   2.106   4.983   4.320 -0.1333 -0.4579  0.0485
 5612SOL    HW222220   2.146   4.996   4.406 -1.3143  0.2187  0.5173
 5612SOL    HW322221   2.096   5.071   4.284 -0.8406 -0.6361 -0.2155
 5612SOL    MW422222   2.110   4.996   4.327  0.6210  0.5931 -0.1280
 5613SOL     OW22223   5.997   3.521   3.744 -0.4989 -0.1035 -0.0295
 5613SOL    HW222224   6.062   3.473   3.692 -0.8879 -2.2592  1.3280
 5613SOL    HW322225   5.917   3.468   3.738 -1.2953  0.9832  0.6258
 5613SOL    MW422226   5.995   3.508   3.737  0.0496 -0.1622  0.0166
 5614SOL     OW22227   1.040   3.357   2.428  0.1019 -0.1902  0.1139
 5614SOL    HW222228   1.067   3.273   2.467  1.6975  0.0915 -0.3273
 5614SOL    HW322229   0.958   3.378   2.472 -0.5563 -2.1722 -0.0365
 5614SOL    MW422230   1.033   3.349   2.439 -0.9675 -0.1210  0.4049
 5615SOL     OW22231   0.616   4.827   2.773 -0.4068 -0.2743  0.2677
 5615SOL    HW222232   0.564   4.885   2.717  1.2907  0.0626 -1.0583
 5615SOL    HW322233   0.698   4.874   2.786  0.0615 -1.3253  1.2277
 5615SOL    MW422234   0.620   4.841   2.767 -0.1610  0.7418  0.8918
 5616SOL     OW22235   2.045   2.845   3.686  0.2008 -0.3443 -0.2528
 5616SOL    HW222236   2.124   2.864   3.737 -0.5488  0.9562  0.4707
 5616SOL    HW322237   1.996   2.928   3.685 -0.8403 -0.9414 -1.2484
 5616SOL    MW422238   2.049   2.859   3.693  0.1976  0.1967 -0.8110
 5617SOL     OW22239   5.869   2.833   3.267 -0.6327 -0.5394  0.2176
 5617SOL    HW222240   5.780   2.810   3.297 -1.3323  0.1336 -1.2436
 5617SOL    HW322241   5.884   2.920   3.302 -0.9666 -0.2448 -0.3547
 5617SOL    MW422242   5.859   2.841   3.276 -0.2720  0.6365  0.2698
 5618SOL     OW22243   1.617   5.653   6.312  0.1557  0.1936 -0.2359
 5618SOL    HW222244   1.646   5.740   6.285 -0.2334 -0.0673 -1.5922
 5618SOL    HW322245   1.696   5.598   6.305 -0.1446 -0.0925 -1.9768
 5618SOL    MW422246   1.631   5.657   6.307 -0.1421  0.1647 -0.6626
 5619SOL     OW22247   0.955  -0.004   5.816 -0.2107 -0.0596 -0.1201
 5619SOL    HW222248   0.940  -0.092   5.852 -0.1246  0.6359  1.7390
 5619SOL    HW322249   0.965   0.052   5.893  3.6358  0.9464 -1.1209
 5619SOL    MW422250   0.955  -0.008   5.831 -0.1220 -0.1716  0.0646
 5620SOL     OW22251   3.801   0.902   2.748  0.0804  0.2619  0.6798
 5620SOL    HW222252   3.717   0.914   2.705  1.0138  2.1586 -0.7139
 5620SOL    HW322253   3.829   0.990   2.772  2.1443 -0.2002  0.1525
 5620SOL    MW422254   3.794   0.915   2.746 -0.4470  0.0994  0.2339
 5621SOL     OW22255   0.258   4.102   0.825  0.5570  0.1423  0.6158
 5621SOL    HW222256   0.335   4.047   0.810  0.1976 -0.1693 -0.1699
 5621SOL    HW322257   0.278   4.184   0.781 -0.3429 -0.6386 -1.3796
 5621SOL    MW422258   0.270   4.105   0.817  0.1279  0.2349 -0.0638
 5622SOL     OW22259   0.238   1.907   2.137 -0.0179 -0.5219 -0.2348
 5622SOL    HW222260   0.152   1.931   2.172  0.1483  0.0541 -0.2046
 5622SOL    HW322261   0.253   1.969   2.065  0.8668  0.1437  0.4974
 5622SOL    MW422262   0.229   1.919   2.132 -0.2985 -0.2050  0.6845
 5623SOL     OW22263   3.731   1.098   1.331 -0.5377 -0.1373 -0.0016
 5623SOL    HW222264   3.764   1.023   1.281  0.3811 -0.2189  0.6964
 5623SOL    HW322265   3.725   1.066   1.421  0.7717  0.8565  0.4814
 5623SOL    MW422266   3.735   1.084   1.336 -0.0779 -0.2275  0.1407
 5624SOL     OW22267   2.380   4.734   3.565 -0.6819 -0.0438 -0.3388
 5624SOL    HW222268   2.316   4.753   3.634 -0.4180 -1.9520  0.5126
 5624SOL    HW322269   2.465   4.746   3.608 -0.5174 -1.4363 -0.2452
 5624SOL    MW422270   2.383   4.738   3.580 -0.4337 -0.8020  0.3875
 5625SOL     OW22271   5.996   0.485   3.913 -0.2592 -0.4415  0.1977
 5625SOL    HW222272   5.971   0.392   3.913 -1.7145 -0.1122  2.1799
 5625SOL    HW322273   5.920   0.531   3.878  0.6813  0.0046 -1.3518
 5625SOL    MW422274   5.983   0.479   3.909 -0.0998 -0.1960  0.3412
 5626SOL     OW22275   1.602   1.174   0.652 -0.9193  0.3443 -0.0676
 5626SOL    HW222276   1.605   1.114   0.727 -0.4160  1.0684  0.5171
 5626SOL    HW322277   1.634   1.122   0.578 -0.0128  0.0184  0.5301
 5626SOL    MW422278   1.607   1.159   0.652 -0.3642  0.0895 -0.5073
 5627SOL     OW22279   0.505   0.657   5.630 -0.3372 -0.1061  0.2614
 5627SOL    HW222280   0.504   0.651   5.725 -1.6922  0.1853  0.2858
 5627SOL    HW322281   0.452   0.583   5.600  0.3469 -0.3878 -0.2911
 5627SOL    MW422282   0.498   0.647   5.639  0.1276 -0.2180  0.1530
 5628SOL     OW22283   2.119   3.854   1.019  0.2273  0.2034  0.1674
 5628SOL    HW222284   2.075   3.806   1.089  0.6980 -1.3032 -0.5179
 5628SOL    HW322285   2.213   3.837   1.033  0.3582  0.3140 -0.5143
 5628SOL    MW422286   2.126   3.846   1.030 -0.5871 -0.3648  0.0552
 5629SOL     OW22287   4.691   4.948   0.998  0.3737 -0.5238 -0.0842
 5629SOL    HW222288   4.598   4.934   1.015  0.1761 -2.0314 -1.9894
 5629SOL    HW322289   4.729   4.971   1.083 -1.6167 -0.5356  0.8523
 5629SOL    MW422290   4.684   4.949   1.011  0.7499  0.7034 -0.1429
 5630SOL     OW22291   1.670   0.150   0.810 -0.3115  0.2824 -0.6308
 5630SOL    HW222292   1.712   0.133   0.894  1.3519 -0.6594 -1.6202
 5630SOL    HW322293   1.684   0.244   0.795 -2.4304  0.9606  1.0370
 5630SOL    MW422294   1.677   0.160   0.819  0.0957  0.2483 -0.0292
 5631SOL     OW22295   1.910   5.729   4.326  0.5805  0.5983 -0.1682
 5631SOL    HW222296   1.891   5.690   4.241 -1.9497  1.6324 -0.1772
 5631SOL    HW322297   1.932   5.820   4.307  1.1511  0.5467  0.2161
 5631SOL    MW422298   1.910   5.736   4.313 -0.2587 -0.0429 -0.0347
 5632SOL     OW22299   1.109   0.063   2.937  0.5641 -0.1288 -0.2914
 5632SOL    HW222300   1.081   0.111   3.015 -0.1575 -2.1103  0.7419
 5632SOL    HW322301   1.040   0.078   2.873  0.4387  0.3439 -0.0496
 5632SOL    MW422302   1.096   0.072   2.939  0.0267  0.4586  0.4255
 5633SOL     OW22303   4.903   4.996   2.311 -0.0486  0.7997 -0.1921
 5633SOL    HW222304   4.948   4.965   2.390  1.1373  0.2036 -1.0857
 5633SOL    HW322305   4.965   4.982   2.240 -1.3590  0.6483 -1.3633
 5633SOL    MW422306   4.917   4.990   2.312  0.5267 -0.0973 -0.4188
 5634SOL     OW22307   1.243   4.360   1.896  0.4610  0.4310 -0.0381
 5634SOL    HW222308   1.168   4.314   1.858  0.6110  0.0667  0.1027
 5634SOL    HW322309   1.204   4.431   1.948  0.1865 -0.1146  0.5116
 5634SOL    MW422310   1.228   4.363   1.898 -0.2574 -0.2620 -0.0721
 5635SOL     OW22311  -0.004   4.732   2.785  0.7362 -0.4829 -0.4742
 5635SOL    HW222312  -0.074   4.668   2.798  0.5048 -0.4483 -1.4382
 5635SOL    HW322313   0.021   4.759   2.873 -1.3201  0.4087 -0.1057
 5635SOL    MW422314  -0.010   4.727   2.799  0.1141  0.0808  0.0269
 5636SOL     OW22315   1.447   3.244   4.157 -0.5052  0.4537 -0.5183
 5636SOL    HW222316   1.472   3.185   4.085 -1.6092  0.3751 -0.8577
 5636SOL    HW322317   1.428   3.185   4.230  0.8046  0.5438 -0.0790
 5636SOL    MW422318   1.448   3.228   4.157 -0.5557  0.1214  0.1538
 5637SOL     OW22319   4.440   4.199   3.099  0.3308  0.1219 -0.0024
 5637SOL    HW222320   4.356   4.242   3.114 -0.5948 -2.0743  1.6999
 5637SOL    HW322321   4.503   4.252   3.147 -0.5588  0.3059  1.0004
 5637SOL    MW422322   4.437   4.212   3.108  0.0101  0.0550  0.4905
 5638SOL     OW22323   4.176   3.261   3.594 -0.3603  0.2059  0.0311
 5638SOL    HW222324   4.227   3.289   3.519  1.3233  0.0957  1.0928
 5638SOL    HW322325   4.223   3.185   3.629 -1.1269  0.2129  1.1580
 5638SOL    MW422326   4.189   3.255   3.589  0.1722 -0.3461  0.0919
 5639SOL     OW22327   1.000   3.440   3.449 -0.4087 -0.5331 -0.2399
 5639SOL    HW222328   0.978   3.531   3.432 -1.5976 -0.6859  0.4117
 5639SOL    HW322329   0.953   3.391   3.381  0.3595 -0.6628 -0.6910
 5639SOL    MW422330   0.991   3.445   3.438  0.3552  0.0384  0.2253
 5640SOL     OW22331   0.907   4.352   5.709  0.2972 -0.1132  0.3380
 5640SOL    HW222332   0.914   4.447   5.705  0.0668 -0.1008  0.1947
 5640SOL    HW322333   0.964   4.326   5.781  2.3787 -0.0821 -1.1986
 5640SOL    MW422334   0.916   4.361   5.718  0.6892 -0.5828  0.2985
 5641SOL     OW22335   1.951   2.239   6.265  0.1013 -0.3497  0.4569
 5641SOL    HW222336   1.874   2.195   6.228 -0.3538 -1.3540  2.4622
 5641SOL    HW322337   2.025   2.201   6.218 -0.3429 -2.7515  1.5228
 5641SOL    MW422338   1.950   2.228   6.254  0.2706 -0.0453 -0.1754
 5642SOL     OW22339   3.320   0.172   3.472  0.7654 -0.0441  0.4484
 5642SOL    HW222340   3.334   0.078   3.483  1.3343  0.2051  2.1444
 5642SOL    HW322341   3.285   0.181   3.384 -1.9927 -2.1663  1.1746
 5642SOL    MW422342   3.317   0.160   3.462 -0.1593  0.1774  0.0933
 5643SOL     OW22343   2.200   3.748   3.797 -0.1788  0.4636  0.1988
 5643SOL    HW222344   2.214   3.829   3.846  0.5851 -0.8974  2.3884
 5643SOL    HW322345   2.276   3.742   3.739  1.1750  0.0912  1.9068
 5643SOL    MW422346   2.212   3.758   3.796  0.3174 -0.1310  0.9997
 5644SOL     OW22347   2.780   4.259   0.191  0.3868 -0.1177 -0.9302
 5644SOL    HW222348   2.862   4.286   0.150  1.3426  0.3792  1.1734
 5644SOL    HW322349   2.785   4.164   0.195  0.7187 -0.1069 -1.1249
 5644SOL    MW422350   2.791   4.250   0.186  0.1106  0.2288 -0.6730
 5645SOL     OW22351   1.891   1.846   2.304  0.2601 -0.3236 -0.3869
 5645SOL    HW222352   1.966   1.788   2.304  1.6047  1.3206 -1.0789
 5645SOL    HW322353   1.860   1.846   2.213 -0.8047 -1.2344 -0.0444
 5645SOL    MW422354   1.897   1.838   2.292  0.6270  0.5132  0.1219
 5646SOL     OW22355   1.678   4.428   3.768 -0.1477 -0.4262  0.1318
 5646SOL    HW222356   1.759   4.409   3.815  0.7025  1.1322 -0.6180
 5646SOL    HW322357   1.659   4.520   3.788 -1.0216 -0.3946 -0.7317
 5646SOL    MW422358   1.686   4.438   3.777 -0.4345 -0.1886  0.1034
 5647SOL     OW22359   4.926   4.314   2.051 -0.7911 -0.0171  0.2330
 5647SOL    HW222360   4.894   4.285   1.966  0.6262  1.0567 -0.6968
 5647SOL    HW322361   5.003   4.367   2.032  0.5090 -1.0254  2.2842
 5647SOL    MW422362   4.932   4.317   2.037  0.2142  0.1606 -0.1868
 5648SOL     OW22363   1.033   3.387   5.404  0.0001 -0.4231 -0.4457
 5648SOL    HW222364   1.068   3.345   5.483  2.2373  2.3774  0.2298
 5648SOL    HW322365   1.111   3.405   5.351 -0.6720  3.0776 -0.4729
 5648SOL    MW422366   1.048   3.384   5.408  0.3278 -0.4379 -0.1793
 5649SOL     OW22367   6.160   2.432   0.196 -0.2935  0.0749 -0.2917
 5649SOL    HW222368   6.081   2.435   0.142  0.4383  0.6483 -1.3583
 5649SOL    HW322369   6.219   2.372   0.149  0.2543  0.3812 -0.0059
 5649SOL    MW422370   6.157   2.425   0.183  0.1242 -0.3499  0.5947
 5650SOL     OW22371   6.050   0.731   0.691  0.0368  0.1046  0.0284
 5650SOL    HW222372   6.019   0.651   0.647  0.9900 -0.1783 -0.1616
 5650SOL    HW322373   6.117   0.766   0.631 -1.6583  2.0943 -0.8102
 5650SOL    MW422374   6.055   0.725   0.677 -0.8100  0.2264 -0.4869
 5651SOL     OW22375   0.647   4.738   3.553  0.0203  0.2767 -0.3291
 5651SOL    HW222376   0.587   4.813   3.553  1.1517  1.2105  0.4891
 5651SOL    HW322377   0.642   4.704   3.463 -1.1342  0.8100 -0.4842
 5651SOL    MW422378   0.638   4.744   3.541  0.2083 -0.3558  0.2018
 5652SOL     OW22379   5.730   0.878   1.330  0.2063 -0.4858 -0.0556
 5652SOL    HW222380   5.655   0.922   1.290  0.5332  0.1338  0.0042
 5652SOL    HW322381   5.805   0.934   1.310  0.6855 -1.1694 -0.2415
 5652SOL    MW422382   5.730   0.891   1.322  0.0938  0.0138  0.1131
 5653SOL     OW22383   4.398   3.636   5.408  0.0029  0.3979 -0.1542
 5653SOL    HW222384   4.464   3.638   5.478 -0.1112  1.1440 -0.0574
 5653SOL    HW322385   4.444   3.598   5.333  0.1039 -0.4797  0.3346
 5653SOL    MW422386   4.413   3.631   5.407 -0.8526  0.3038  0.0422
 5654SOL     OW22387   3.174   4.353   2.138  0.0808 -0.6590  0.5628
 5654SOL    HW222388   3.249   4.301   2.167  0.7232  0.2133  0.4865
 5654SOL    HW322389   3.148   4.403   2.215  0.5578  0.1939  0.1845
 5654SOL    MW422390   3.180   4.353   2.152 -0.0580  0.0411 -0.3718
 5655SOL     OW22391   5.089   1.295   3.070 -0.4681 -0.2816 -0.6753
 5655SOL    HW222392   5.038   1.330   3.143 -1.9921  0.3862 -1.9734
 5655SOL    HW322393   5.177   1.285   3.104 -0.8686  1.1400  0.9059
 5655SOL    MW422394   5.094   1.299   3.084 -0.5791  0.3470 -0.5483
 5656SOL     OW22395   5.655   5.205   4.446 -0.0537  0.1154 -0.4507
 5656SOL    HW222396   5.619   5.286   4.410 -0.0874  0.3095  0.0037
 5656SOL    HW322397   5.649   5.141   4.375  1.6584  0.9716 -1.4019
 5656SOL    MW422398   5.649   5.207   4.432  0.5045  0.2016  0.2752
 5657SOL     OW22399   3.308   0.171   0.658 -0.0862 -0.2233 -0.2692
 5657SOL    HW222400   3.336   0.260   0.636 -0.4720 -0.3972 -1.5332
 5657SOL    HW322401   3.389   0.121   0.663  0.3026  0.5128  2.1724
 5657SOL    MW422402   3.322   0.176   0.656  0.0374  0.1987  0.2280
 5658SOL     OW22403   0.432   6.404   5.138 -0.9992  0.1572 -0.2799
 5658SOL    HW222404   0.437   6.435   5.229  1.0494  1.2232 -0.6864
 5658SOL    HW322405   0.417   6.484   5.087 -0.3153 -0.1602 -0.9986
 5658SOL    MW422406   0.431   6.419   5.143 -0.2001  0.5181  0.7284
 5659SOL     OW22407   6.256   0.322   4.084 -0.0041 -0.1598  0.0451
 5659SOL    HW222408   6.242   0.363   3.998  1.2907 -0.2624 -0.2368
 5659SOL    HW322409   6.347   0.342   4.104  0.0407 -1.1692  0.8568
 5659SOL    MW422410   6.266   0.330   4.075  0.1728 -0.1185 -0.4342
 5660SOL     OW22411   0.641   2.679   3.331  0.5191  0.2182  0.0165
 5660SOL    HW222412   0.583   2.755   3.327  0.4314  0.2268  1.0899
 5660SOL    HW322413   0.714   2.708   3.387  0.3147 -0.5785  0.7266
 5660SOL    MW422414   0.643   2.693   3.338 -0.0975 -0.3455  0.1208
 5661SOL     OW22415   4.023   6.255   5.482 -0.0904  0.2509 -0.8199
 5661SOL    HW222416   3.969   6.277   5.406 -0.6265 -0.1500 -0.5601
 5661SOL    HW322417   4.002   6.164   5.501 -0.8226  0.6673  0.5018
 5661SOL    MW422418   4.013   6.246   5.475  0.0186 -0.0309  0.0367
 5662SOL     OW22419   5.570   0.967   5.901  0.5073  0.2657 -0.6055
 5662SOL    HW222420   5.606   0.970   5.812  1.0883 -1.5541 -0.4791
 5662SOL    HW322421   5.647   0.954   5.957 -0.1238 -1.6878 -0.1413
 5662SOL    MW422422   5.585   0.966   5.897 -0.2924 -0.0232  0.5264
 5663SOL     OW22423   4.076   1.209   4.809  0.4399 -0.4406 -0.0234
 5663SOL    HW222424   4.008   1.269   4.778  0.9606  0.2007  0.0523
 5663SOL    HW322425   4.052   1.124   4.772 -0.5884 -0.2935  0.2806
 5663SOL    MW422426   4.064   1.206   4.800  0.2416 -0.0254 -0.4026
 5664SOL     OW22427   0.171   5.195   5.709  0.1706 -0.6232 -0.6018
 5664SOL    HW222428   0.200   5.108   5.685 -0.4462 -1.6609  2.0317
 5664SOL    HW322429   0.091   5.208   5.658  0.4034 -1.4834 -1.2093
 5664SOL    MW422430   0.164   5.185   5.699  0.1907 -0.1168  0.0588
 5665SOL     OW22431   4.230   0.683   1.674  0.1149  0.7078  0.6145
 5665SOL    HW222432   4.324   0.665   1.667  0.0777  0.0934  1.5208
 5665SOL    HW322433   4.190   0.597   1.688 -0.7668  0.7661 -1.2587
 5665SOL    MW422434   4.237   0.669   1.675 -0.1152 -0.1854 -0.3082
 5666SOL     OW22435   4.054   2.977   0.403  0.0244  0.2311 -0.0395
 5666SOL    HW222436   4.010   2.892   0.404 -0.9675  0.7112  1.7999
 5666SOL    HW322437   4.081   2.989   0.312  0.1464 -2.0076 -0.3574
 5666SOL    MW422438   4.052   2.967   0.392  0.2628 -0.7933  0.5217
 5667SOL     OW22439   0.229   5.907   2.412  0.4506  0.2711  0.0569
 5667SOL    HW222440   0.247   5.828   2.361  1.4562  1.6040 -1.7976
 5667SOL    HW322441   0.303   5.915   2.472  0.8082  0.2602 -0.3779
 5667SOL    MW422442   0.241   5.898   2.413 -0.8168  0.6776 -0.1640
 5668SOL     OW22443   4.876   1.847   2.896 -0.0139  0.6198 -0.2827
 5668SOL    HW222444   4.873   1.895   2.813 -1.3869  0.1794 -0.5183
 5668SOL    HW322445   4.870   1.915   2.963 -1.0922  0.8644 -0.5997
 5668SOL    MW422446   4.875   1.862   2.894  0.5650 -0.0468 -0.1557
 5669SOL     OW22447   4.331   5.561   3.442  0.3537 -0.3807  0.5179
 5669SOL    HW222448   4.314   5.623   3.513  1.3521  1.2233 -0.5608
 5669SOL    HW322449   4.247   5.552   3.397  0.3115  0.6977  0.3421
 5669SOL    MW422450   4.318   5.568   3.446  0.2596 -0.9615  0.1570
 5670SOL     OW22451   0.023   3.336   5.834 -0.0743 -0.2972  0.3092
 5670SOL    HW222452   0.059   3.422   5.812 -0.1163 -0.8513 -2.1768
 5670SOL    HW322453  -0.045   3.320   5.769  0.2623 -2.4021  0.3959
 5670SOL    MW422454   0.019   3.346   5.823 -0.0543  0.5117  0.1248
 5671SOL     OW22455   1.747   2.711   1.891  0.1218 -0.0585  0.5426
 5671SOL    HW222456   1.725   2.706   1.798  1.2399  2.2453  0.0630
 5671SOL    HW322457   1.788   2.627   1.911  0.1313 -0.4963 -1.1434
 5671SOL    MW422458   1.750   2.699   1.881 -0.1271 -0.5159  1.1212
 5672SOL     OW22459   3.653   2.297   3.064  0.1188 -0.4768 -0.6015
 5672SOL    HW222460   3.739   2.260   3.083  0.1600  0.4822  1.3149
 5672SOL    HW322461   3.648   2.376   3.118 -0.7387  1.2865 -3.0415
 5672SOL    MW422462   3.664   2.302   3.073  0.2939  0.4716  0.4045
 5673SOL     OW22463   0.176   6.157   4.803  0.3856 -0.6946 -0.2254
 5673SOL    HW222464   0.238   6.130   4.870  1.3037  0.2405 -0.6608
 5673SOL    HW322465   0.130   6.077   4.779  0.0336 -1.0546  1.4950
 5673SOL    MW422466   0.178   6.143   4.809 -0.0837  0.1315  0.0339
 5674SOL     OW22467   1.851   2.053   6.071  0.2516  0.6601 -0.4530
 5674SOL    HW222468   1.894   2.050   5.986 -0.9079 -0.2384 -1.0314
 5674SOL    HW322469   1.893   1.984   6.122 -0.3427 -0.0758 -0.9457
 5674SOL    MW422470   1.862   2.044   6.067  0.2991  0.0409  0.2875
 5675SOL     OW22471   5.345   2.406   1.981  0.2229  0.0493  0.5465
 5675SOL    HW222472   5.361   2.488   2.028  0.3614  0.5199 -0.2993
 5675SOL    HW322473   5.425   2.355   1.994  0.2618  0.1772  0.8188
 5675SOL    MW422474   5.358   2.411   1.989  0.2038 -0.9112  0.4202
 5676SOL     OW22475   3.627   1.664   0.924  0.2128 -0.1715  0.7478
 5676SOL    HW222476   3.677   1.600   0.872  0.3187 -1.0359  1.8675
 5676SOL    HW322477   3.540   1.626   0.932 -0.2095  0.6259  0.0466
 5676SOL    MW422478   3.622   1.650   0.918 -0.2712 -0.4259  0.2446
 5677SOL     OW22479   3.517   6.213   0.701  0.2960 -0.0098  0.3829
 5677SOL    HW222480   3.551   6.180   0.617 -0.3090  0.3800 -0.0275
 5677SOL    HW322481   3.422   6.214   0.689 -0.0437 -2.7772  2.1299
 5677SOL    MW422482   3.509   6.209   0.688  0.3340 -0.2685 -0.3558
 5678SOL     OW22483   4.222   4.440   6.431  0.2965  0.5176  0.3934
 5678SOL    HW222484   4.190   4.357   6.468  0.9637  0.2771  0.4473
 5678SOL    HW322485   4.263   4.415   6.348  1.4190  0.6370  0.8961
 5678SOL    MW422486   4.223   4.425   6.425 -0.0093 -0.3399  0.4165
 5679SOL     OW22487   3.318   1.590   5.600 -0.5937 -0.1294  0.1506
 5679SOL    HW222488   3.280   1.669   5.560 -0.2240 -0.2901 -0.5240
 5679SOL    HW322489   3.372   1.552   5.532 -1.3104 -1.3595  0.2362
 5679SOL    MW422490   3.320   1.596   5.586  0.0294 -0.6443 -0.2683
 5680SOL     OW22491   4.269   3.067   4.301 -0.4894 -0.1971  0.1860
 5680SOL    HW222492   4.197   3.061   4.239 -1.7941  1.1763  1.5010
 5680SOL    HW322493   4.234   3.117   4.374  1.6098 -0.0499  1.1605
 5680SOL    MW422494   4.255   3.073   4.302 -0.3557 -0.5528 -0.1552
 5681SOL     OW22495   0.012   6.395   3.428  0.3193  0.0921  0.1392
 5681SOL    HW222496   0.046   6.483   3.413 -1.4482  0.8078  0.1316
 5681SOL    HW322497   0.089   6.344   3.453  1.0041  2.3563  3.2962
 5681SOL    MW422498   0.027   6.400   3.430  0.2124 -0.2761  0.2759
 5682SOL     OW22499   2.959   2.262   0.827 -0.0229  0.2433  0.0510
 5682SOL    HW222500   2.894   2.258   0.897  1.1432  1.0929  1.2373
 5682SOL    HW322501   3.026   2.199   0.852 -0.2227 -0.4147 -1.0094
 5682SOL    MW422502   2.959   2.253   0.839 -0.2260  0.3106  0.7500
 5683SOL     OW22503   4.647   5.932   5.705  0.4659 -0.0392 -0.0864
 5683SOL    HW222504   4.637   5.865   5.772 -0.4403 -0.5060 -0.6667
 5683SOL    HW322505   4.725   5.905   5.656  0.4850 -0.3125  0.0929
 5683SOL    MW422506   4.656   5.919   5.707  0.2925  0.2504  0.3388
 5684SOL     OW22507   3.527   0.447   1.133  0.0896  0.0408 -0.1488
 5684SOL    HW222508   3.567   0.376   1.084  0.4937  0.5057 -0.5073
 5684SOL    HW322509   3.433   0.433   1.124  0.1671 -0.6059  0.0251
 5684SOL    MW422510   3.520   0.436   1.125 -0.5444  0.5253 -0.5581
 5685SOL     OW22511   1.873   2.044   4.482  0.0812  0.1450 -0.0770
 5685SOL    HW222512   1.807   2.071   4.545  0.1683  0.1325  0.0205
 5685SOL    HW322513   1.911   1.964   4.519  0.4288  0.3739  0.0680
 5685SOL    MW422514   1.869   2.037   4.495 -0.6619  0.3191  0.2472
 5686SOL     OW22515   3.703   3.579   6.335  0.1623 -0.7679 -0.1197
 5686SOL    HW222516   3.668   3.496   6.368 -1.3097 -0.2719 -0.3552
 5686SOL    HW322517   3.687   3.575   6.240 -0.0041 -0.1938 -0.1208
 5686SOL    MW422518   3.696   3.567   6.327 -0.1849  0.6720 -0.5884
 5687SOL     OW22519   5.535   0.977   1.128 -0.4097 -0.1369 -0.4300
 5687SOL    HW222520   5.460   0.917   1.119 -1.9281  1.2359  1.9634
 5687SOL    HW322521   5.538   1.023   1.044 -1.4192 -1.1283 -1.0550
 5687SOL    MW422522   5.525   0.975   1.115  0.4159 -0.0864 -0.0266
 5688SOL     OW22523   3.820   3.375   1.067 -0.4179  0.0274 -0.1935
 5688SOL    HW222524   3.849   3.459   1.101 -1.1470 -1.3940  4.7250
 5688SOL    HW322525   3.901   3.327   1.048  0.2484  0.1851  1.9432
 5688SOL    MW422526   3.834   3.380   1.069  0.1186 -0.7167 -0.1836
 5689SOL     OW22527   1.957   5.534   2.948  0.2890 -0.3717 -0.4307
 5689SOL    HW222528   1.996   5.619   2.926  1.1064 -0.5433  0.2943
 5689SOL    HW322529   1.937   5.494   2.864 -0.1082  0.5323 -0.7857
 5689SOL    MW422530   1.959   5.540   2.934  0.5801  0.4958 -0.2251
 5690SOL     OW22531   1.675   1.866   1.798  0.3582  0.4461  0.5485
 5690SOL    HW222532   1.586   1.896   1.779  0.0449 -0.0119  1.2611
 5690SOL    HW322533   1.731   1.927   1.752 -0.3344  0.6064 -0.0969
 5690SOL    MW422534   1.670   1.878   1.790 -0.4345 -0.1628  0.9155
 5691SOL     OW22535   2.063   3.510   1.517 -0.9425 -0.5409  0.2023
 5691SOL    HW222536   2.032   3.600   1.511  1.5429  0.3292 -0.8402
 5691SOL    HW322537   2.010   3.462   1.454  0.5510  1.1598 -2.5684
 5691SOL    MW422538   2.052   3.515   1.508  0.3137  0.0164 -0.0524
 5692SOL     OW22539   3.858   5.720   2.095 -0.0071 -0.0471 -0.1974
 5692SOL    HW222540   3.775   5.685   2.063 -0.7995 -0.1311  1.8598
 5692SOL    HW322541   3.883   5.785   2.029 -1.7306  0.0175 -0.8315
 5692SOL    MW422542   3.851   5.724   2.082 -0.0196  0.3820  0.5060
 5693SOL     OW22543   0.828   5.363   2.315 -0.5906 -0.7668  0.0364
 5693SOL    HW222544   0.883   5.436   2.345  0.0279 -1.0913 -0.2834
 5693SOL    HW322545   0.739   5.395   2.324 -0.3781 -0.4009  1.0316
 5693SOL    MW422546   0.824   5.377   2.320  0.4827 -0.3837  0.2937
 5694SOL     OW22547   5.649   6.336   2.167  0.2817  0.1594  0.2415
 5694SOL    HW222548   5.731   6.373   2.133 -0.4370  3.0114  1.2586
 5694SOL    HW322549   5.587   6.409   2.163 -2.5666 -2.1423 -1.3545
 5694SOL    MW422550   5.652   6.351   2.162 -0.2741  0.2582  0.6425
 5695SOL     OW22551   0.374   0.313   6.373 -0.1797  0.4495  0.5717
 5695SOL    HW222552   0.441   0.283   6.434  1.2099  1.1578 -0.5455
 5695SOL    HW322553   0.416   0.385   6.325 -1.9394  1.3113  0.2322
 5695SOL    MW422554   0.388   0.319   6.375 -0.0532 -0.5096 -0.0137
 5696SOL     OW22555   2.499   6.374   1.143 -0.2426  0.4294  0.3724
 5696SOL    HW222556   2.543   6.333   1.218 -0.0390  1.7870  1.0084
 5696SOL    HW322557   2.478   6.462   1.172 -1.1811  0.6134 -0.7939
 5696SOL    MW422558   2.502   6.380   1.157  1.2717  0.2795 -0.5176
 5697SOL     OW22559   3.530   2.460   3.439  0.1605  0.0562  0.0909
 5697SOL    HW222560   3.561   2.493   3.523 -2.8630 -0.3869  1.5118
 5697SOL    HW322561   3.453   2.513   3.419 -1.9365 -2.8002  0.0023
 5697SOL    MW422562   3.524   2.471   3.447  0.1859 -0.1089 -0.2120
 5698SOL     OW22563   4.050   5.144   3.593  0.9419  0.0504 -0.1172
 5698SOL    HW222564   4.086   5.206   3.657 -4.0674  2.4220  0.9187
 5698SOL    HW322565   4.051   5.059   3.638  2.8034  0.4873  0.7305
 5698SOL    MW422566   4.055   5.141   3.607 -0.0051  0.2876 -0.2947
 5699SOL     OW22567   0.021   1.781   0.934 -1.0150 -0.4237 -0.0773
 5699SOL    HW222568   0.006   1.780   1.029 -0.5594 -0.3649 -0.0011
 5699SOL    HW322569   0.035   1.689   0.911 -0.0294 -0.3258  0.0989
 5699SOL    MW422570   0.021   1.768   0.944 -0.0951 -0.1784 -0.3551
 5700SOL     OW22571   0.610   3.326   4.340 -0.2949 -0.2576  0.2558
 5700SOL    HW222572   0.536   3.353   4.394  0.0477 -0.2556  0.7245
 5700SOL    HW322573   0.677   3.393   4.355 -0.5106  0.2168 -0.8357
 5700SOL    MW422574   0.609   3.338   4.349 -0.5266 -0.0599 -0.5032
 5701SOL     OW22575   6.388   5.858   5.082  0.7730 -0.6950 -0.1802
 5701SOL    HW222576   6.327   5.918   5.124 -0.0549 -1.2014 -0.6254
 5701SOL    HW322577   6.426   5.909   5.010 -0.4058 -0.8729 -0.9586
 5701SOL    MW422578   6.385   5.873   5.078 -0.1213  0.2913  0.2756
 5702SOL     OW22579   4.597   0.629   4.120  0.4338  0.1582  1.0938
 5702SOL    HW222580   4.623   0.539   4.098 -0.2884  0.0905  0.4702
 5702SOL    HW322581   4.601   0.676   4.036  0.2989  0.5776  1.3195
 5702SOL    MW422582   4.601   0.623   4.106  0.1248 -0.2388  0.2363
 5703SOL     OW22583   5.779   5.292   2.310  0.2602  0.6468  0.2299
 5703SOL    HW222584   5.690   5.259   2.299  0.1739  0.2178  1.9221
 5703SOL    HW322585   5.832   5.213   2.319  0.6117  0.9146  0.5254
 5703SOL    MW422586   5.774   5.277   2.310 -0.3561  0.2863 -0.1424
 5704SOL     OW22587   3.211   2.065   4.230 -0.3179 -0.7930  0.0611
 5704SOL    HW222588   3.124   2.100   4.250 -0.2270 -0.9446  0.7232
 5704SOL    HW322589   3.268   2.100   4.299  0.5656  0.9680 -1.4629
 5704SOL    MW422590   3.207   2.074   4.241 -0.1965 -0.4275 -0.2755
 5705SOL     OW22591   5.618   5.009   6.372 -0.3286  0.1220  0.3937
 5705SOL    HW222592   5.687   4.949   6.402  1.5491  0.8883 -2.0569
 5705SOL    HW322593   5.614   5.077   6.438  0.2474 -0.6984  1.2940
 5705SOL    MW422594   5.627   5.010   6.384  0.2147  0.4399 -0.5781
 5706SOL     OW22595   5.434   3.655   3.458 -0.6219 -0.4549  0.3610
 5706SOL    HW222596   5.401   3.621   3.375  1.4730  0.9547 -1.1549
 5706SOL    HW322597   5.470   3.741   3.436  0.1993 -0.1280  2.6884
 5706SOL    MW422598   5.435   3.662   3.445  0.6156  0.4814  0.4141
 5707SOL     OW22599   1.841   5.048   5.820 -0.0706  0.4567  0.2332
 5707SOL    HW222600   1.789   5.063   5.742  1.8320 -1.3227 -1.5145
 5707SOL    HW322601   1.908   5.117   5.818 -0.5997  0.9958  0.8552
 5707SOL    MW422602   1.843   5.059   5.809 -0.2476 -0.0248  0.0991
 5708SOL     OW22603   3.229   6.142   0.178  0.1548  0.2797 -0.3512
 5708SOL    HW222604   3.304   6.155   0.235 -0.3236  0.1002  0.3356
 5708SOL    HW322605   3.201   6.230   0.155  0.2794  0.3575 -0.2070
 5708SOL    MW422606   3.235   6.155   0.183 -0.0267  0.1870  0.7144
 5709SOL     OW22607   5.286   2.195   3.486 -0.5437 -0.3046 -0.1000
 5709SOL    HW222608   5.219   2.190   3.417 -0.0965 -2.0620 -0.4559
 5709SOL    HW322609   5.361   2.235   3.443 -0.1570 -1.6821 -0.7876
 5709SOL    MW422610   5.287   2.199   3.471  0.5606 -0.3032 -0.2564
 5710SOL     OW22611   4.265   4.291   4.380  0.8080 -0.2233 -0.0359
 5710SOL    HW222612   4.325   4.354   4.419  1.4355 -0.5839 -0.3943
 5710SOL    HW322613   4.322   4.224   4.342  0.1589 -1.4464  1.0401
 5710SOL    MW422614   4.280   4.290   4.380  0.2224 -0.3092 -0.5404
 5711SOL     OW22615   0.362   0.157   0.919  0.3063 -0.4878 -0.1112
 5711SOL    HW222616   0.342   0.106   0.997  0.5215  0.0815  0.3227
 5711SOL    HW322617   0.446   0.199   0.938  0.1875 -0.0576 -0.5002
 5711SOL    MW422618   0.370   0.156   0.931 -0.0649  0.1818 -0.2727
 5712SOL     OW22619   4.131   4.024   3.304  0.2487  0.0464  0.5188
 5712SOL    HW222620   4.171   3.945   3.268 -2.0721 -0.5533 -0.9660
 5712SOL    HW322621   4.057   3.991   3.355  0.8511  1.1633  2.1797
 5712SOL    MW422622   4.126   4.009   3.306 -0.0177 -0.0344  0.0621
 5713SOL     OW22623   5.597   2.642   4.076  0.0570  0.1309  0.1899
 5713SOL    HW222624   5.687   2.630   4.106 -0.8811 -0.7553  2.9552
 5713SOL    HW322625   5.567   2.553   4.054  0.0080  0.5003 -1.3983
 5713SOL    MW422626   5.605   2.629   4.077 -0.1969  0.9597  0.0863
 5714SOL     OW22627   2.975   1.474   0.708 -0.2233 -0.1591 -0.1913
 5714SOL    HW222628   2.944   1.457   0.797 -0.4738 -0.9663 -0.4280
 5714SOL    HW322629   3.071   1.475   0.717 -0.2450 -0.2593  0.0847
 5714SOL    MW422630   2.984   1.472   0.721 -0.1004  0.0080  0.5819
 5715SOL     OW22631   1.898   2.608   3.702  0.0566  0.5123  0.6960
 5715SOL    HW222632   1.950   2.685   3.681  2.1443 -0.8749  0.4248
 5715SOL    HW322633   1.868   2.623   3.792 -0.5969  2.1329  0.2380
 5715SOL    MW422634   1.901   2.620   3.711  0.6052  0.1882  0.6440
 5716SOL     OW22635   6.386   6.094   6.142 -0.6208 -0.2164  0.0227
 5716SOL    HW222636   6.396   6.040   6.064 -0.4247  0.4007 -0.3882
 5716SOL    HW322637   6.413   6.182   6.114  0.8874 -0.2758  1.1779
 5716SOL    MW422638   6.391   6.099   6.128  0.4716 -0.1063  0.5829
 5717SOL     OW22639   5.694   0.883   4.997  0.3322  0.2325 -0.5642
 5717SOL    HW222640   5.605   0.917   4.999 -0.1681 -1.0064  1.9801
 5717SOL    HW322641   5.685   0.790   5.021  2.4252  0.5329  1.8830
 5717SOL    MW422642   5.681   0.875   5.000 -0.1440 -0.1309 -0.0965
 5718SOL     OW22643   2.902   1.447   5.792 -0.1603 -0.0484 -0.3159
 5718SOL    HW222644   2.852   1.366   5.786  0.3539 -0.3714 -0.2195
 5718SOL    HW322645   2.859   1.497   5.861 -0.6424 -0.1183 -0.5596
 5718SOL    MW422646   2.889   1.443   5.800 -0.0241  0.1865  0.1193
 5719SOL     OW22647   4.271   0.693   0.747  0.0897  0.0658  0.2347
 5719SOL    HW222648   4.233   0.613   0.711 -1.3532  0.4226  0.8607
 5719SOL    HW322649   4.204   0.760   0.733  2.2070  1.8261 -2.5006
 5719SOL    MW422650   4.257   0.692   0.741 -0.7668  0.2419  0.7545
 5720SOL     OW22651   3.225   2.015   1.059 -0.1194  0.1463 -0.2366
 5720SOL    HW222652   3.198   1.924   1.063  0.4499 -0.0923 -1.4032
 5720SOL    HW322653   3.310   2.017   1.104 -0.6028  0.3051  0.6849
 5720SOL    MW422654   3.233   2.004   1.066 -0.7783 -0.6497  0.5693
 5721SOL     OW22655   2.672   1.210   0.220 -0.6234 -0.0793 -0.1415
 5721SOL    HW222656   2.669   1.170   0.133  2.6909 -0.0284 -0.4175
 5721SOL    HW322657   2.655   1.303   0.205  0.3760  0.0018 -0.8420
 5721SOL    MW422658   2.669   1.217   0.207 -0.1469  0.2515  0.3389
 5722SOL     OW22659   2.657   4.266   2.415  0.1101  0.0371 -0.1580
 5722SOL    HW222660   2.643   4.199   2.348  1.4599 -0.4307 -0.0002
 5722SOL    HW322661   2.569   4.285   2.448 -0.3596 -1.3179 -0.5369
 5722SOL    MW422662   2.644   4.259   2.410  0.9795 -0.5817  0.6594
 5723SOL     OW22663   3.612   5.362   6.399  0.3570  0.1847 -0.0832
 5723SOL    HW222664   3.536   5.396   6.351 -1.5737 -0.4220  2.3497
 5723SOL    HW322665   3.652   5.440   6.438 -0.7326  0.2523  0.9351
 5723SOL    MW422666   3.607   5.377   6.398 -0.3600  1.5460 -0.8574
 5724SOL     OW22667   0.257   0.851   4.072 -0.0719 -0.1999 -0.0153
 5724SOL    HW222668   0.181   0.835   4.127 -0.5489 -1.5198 -0.9889
 5724SOL    HW322669   0.220   0.883   3.989  0.5519  0.7173  0.0473
 5724SOL    MW422670   0.242   0.853   4.068 -0.4828 -0.0695  0.2860
 5725SOL     OW22671   0.144   4.182   4.570 -0.3413  0.6680 -0.3360
 5725SOL    HW222672   0.101   4.152   4.650 -0.1143 -0.5229 -0.6505
 5725SOL    HW322673   0.100   4.135   4.500  0.5336  0.4888 -0.7783
 5725SOL    MW422674   0.132   4.172   4.571 -0.2800  0.1480 -0.4909
 5726SOL     OW22675   4.586   1.505   3.938  0.0204 -0.4316  0.2073
 5726SOL    HW222676   4.512   1.557   3.907 -0.1045 -0.5085  0.3708
 5726SOL    HW322677   4.655   1.519   3.873 -0.1430 -0.3707  0.0472
 5726SOL    MW422678   4.585   1.514   3.925  0.4514 -0.0099  0.0260
 5727SOL     OW22679   3.226   3.980   6.371 -0.3375  0.3647  0.7836
 5727SOL    HW222680   3.258   4.005   6.284 -0.1583  1.4415  1.1500
 5727SOL    HW322681   3.135   3.953   6.356  0.5716 -2.5981 -0.2441
 5727SOL    MW422682   3.218   3.979   6.357  0.9600 -0.2207  0.1048
 5728SOL     OW22683   0.081   4.813   3.049  0.6066 -0.0006  0.4027
 5728SOL    HW222684   0.043   4.756   3.116  1.8717  0.4119  1.5249
 5728SOL    HW322685   0.069   4.901   3.084 -0.2455  0.3688 -0.7466
 5728SOL    MW422686   0.074   4.817   3.062  0.2277  0.1234  0.0777
 5729SOL     OW22687   5.485   0.303   5.615 -0.2749  0.3360  0.0067
 5729SOL    HW222688   5.410   0.253   5.584  0.3061  0.2872 -1.3978
 5729SOL    HW322689   5.481   0.295   5.711 -0.6198 -1.7832 -0.1303
 5729SOL    MW422690   5.475   0.296   5.624 -0.3169  0.0000  0.1656
 5730SOL     OW22691   0.927   5.940   1.518  0.0609 -0.2162  0.0800
 5730SOL    HW222692   0.894   5.912   1.433  3.0838  1.8327 -1.9665
 5730SOL    HW322693   0.942   6.034   1.509 -0.0469  0.2093  3.1210
 5730SOL    MW422694   0.925   5.948   1.506 -0.3577 -0.4729  0.2671
 5731SOL     OW22695   3.802   4.565   2.948  0.0716  0.2077 -0.4688
 5731SOL    HW222696   3.811   4.603   2.861  0.5622 -1.2614 -1.0840
 5731SOL    HW322697   3.783   4.640   3.005  1.2612  1.4061 -1.5769
 5731SOL    MW422698   3.800   4.580   2.944 -0.3509 -0.4533 -0.4520
 5732SOL     OW22699   0.400   5.852   3.942  0.0778  0.0078  0.0635
 5732SOL    HW222700   0.431   5.765   3.919  1.3064  0.3033  0.5093
 5732SOL    HW322701   0.413   5.858   4.037 -2.2305 -0.1718  0.4303
 5732SOL    MW422702   0.406   5.842   3.952 -0.4085  0.2552 -0.0056
 5733SOL     OW22703   0.730   1.589   0.717  0.4265 -0.1772  0.4050
 5733SOL    HW222704   0.724   1.676   0.756  2.6347 -0.2179  0.9372
 5733SOL    HW322705   0.823   1.567   0.722  0.1095 -1.9965 -0.9855
 5733SOL    MW422706   0.741   1.598   0.723  0.3407  0.4935 -0.5646
 5734SOL     OW22707   2.278   6.401   0.079 -0.1841 -0.3136  0.3485
 5734SOL    HW222708   2.363   6.370   0.049  0.1466  1.8451 -1.1834
 5734SOL    HW322709   2.285   6.496   0.080 -2.5454 -0.0580  0.2413
 5734SOL    MW422710   2.290   6.409   0.075 -0.2482  0.0988  0.7338
 5735SOL     OW22711   0.318   6.267   3.981 -0.8142 -0.0838 -0.5871
 5735SOL    HW222712   0.291   6.203   4.047  0.5076 -0.1470 -0.0705
 5735SOL    HW322713   0.313   6.351   4.027  1.4236 -0.2506  0.1098
 5735SOL    MW422714   0.314   6.270   3.996 -0.3413 -0.3575  0.7884
 5736SOL     OW22715   3.086   2.224   6.054 -0.0541 -0.6651 -0.2448
 5736SOL    HW222716   2.998   2.219   6.092 -1.2190 -0.1290 -2.6672
 5736SOL    HW322717   3.071   2.238   5.961  2.6390  0.9114 -0.5407
 5736SOL    MW422718   3.072   2.225   6.047 -0.0725 -0.3000  0.2928
 5737SOL     OW22719   6.166   3.027   1.945 -0.4298  0.3638 -0.1005
 5737SOL    HW222720   6.240   2.968   1.959 -0.1303  0.8468  0.4092
 5737SOL    HW322721   6.089   2.970   1.946 -0.0580 -0.1849 -0.9051
 5737SOL    MW422722   6.166   3.012   1.947 -1.0818  0.2584  0.2758
 5738SOL     OW22723   3.309   3.149   1.867  0.3479  0.4276 -0.3811
 5738SOL    HW222724   3.354   3.216   1.815 -2.2400  0.3572 -2.9410
 5738SOL    HW322725   3.217   3.174   1.865 -0.5671 -2.5558 -0.4112
 5738SOL    MW422726   3.303   3.161   1.860  0.3477  0.2821  0.0231
 5739SOL     OW22727   1.934   1.706   4.315  0.3153  0.0432 -0.0567
 5739SOL    HW222728   1.903   1.758   4.389 -0.5232  0.1051 -0.4429
 5739SOL    HW322729   1.922   1.763   4.239  0.0398 -0.4537 -0.3934
 5739SOL    MW422730   1.928   1.721   4.314 -1.0489 -0.0613 -0.1994
 5740SOL     OW22731   5.152   2.525   4.219  0.0593  0.4353  0.6488
 5740SOL    HW222732   5.171   2.617   4.199  0.6825  0.1589 -0.0664
 5740SOL    HW322733   5.209   2.505   4.294  1.1801  0.1720 -0.2452
 5740SOL    MW422734   5.162   2.535   4.227 -0.2813  0.5695 -0.1271
 5741SOL     OW22735   0.090   6.170   5.274  0.4574 -0.1178 -0.0735
 5741SOL    HW222736   0.087   6.264   5.287 -1.9493 -0.3725  1.9624
 5741SOL    HW322737   0.144   6.137   5.346  2.4600 -0.2729 -1.5608
 5741SOL    MW422738   0.097   6.178   5.285  0.0170 -0.3217  0.3642
 5742SOL     OW22739   3.004   5.150   0.444  0.3109  0.4801  0.2843
 5742SOL    HW222740   2.939   5.200   0.492 -0.7025  1.0504 -1.6054
 5742SOL    HW322741   2.962   5.130   0.361  1.7743 -1.0206 -0.1399
 5742SOL    MW422742   2.990   5.154   0.440 -0.1981  0.0293  0.2637
 5743SOL     OW22743   4.898   2.831   2.821  0.0682  0.2953  0.3855
 5743SOL    HW222744   4.976   2.834   2.877 -0.1155 -1.0140  0.7361
 5743SOL    HW322745   4.880   2.738   2.809 -1.4235  0.5712  0.2693
 5743SOL    MW422746   4.906   2.819   2.827  0.7339 -0.0041 -0.4898
 5744SOL     OW22747   2.683   1.448   1.279 -0.2602  0.1372  0.6059
 5744SOL    HW222748   2.596   1.479   1.256  0.3490  2.0199  0.6773
 5744SOL    HW322749   2.743   1.516   1.247  1.0603 -0.3125  1.9728
 5744SOL    MW422750   2.680   1.461   1.272  0.3877  0.6782  0.2285
 5745SOL     OW22751   1.044   2.973   3.287  0.3609 -0.7329 -0.5346
 5745SOL    HW222752   0.951   2.961   3.306  0.2955  0.2447 -0.1997
 5745SOL    HW322753   1.078   3.020   3.363  0.9690 -0.4449 -0.9773
 5745SOL    MW422754   1.036   2.978   3.299  0.4588  0.9931 -0.1662
 5746SOL     OW22755   6.363   4.916   5.491  0.3872 -0.0446  0.2069
 5746SOL    HW222756   6.386   5.009   5.480  0.2747  0.0064  0.3944
 5746SOL    HW322757   6.412   4.889   5.569  0.2530 -0.0860  0.2770
 5746SOL    MW422758   6.373   4.925   5.500  0.2012  0.5857  0.0200
 5747SOL     OW22759   4.007   2.521   3.816 -0.1438  0.4926 -0.2759
 5747SOL    HW222760   4.056   2.604   3.807  0.7157 -0.0265 -0.5280
 5747SOL    HW322761   3.993   2.511   3.910  0.6939  0.4019 -0.1510
 5747SOL    MW422762   4.012   2.531   3.827  0.5894  0.2173 -0.0510
 5748SOL     OW22763   0.568   4.001   3.411  0.5154  0.1091 -0.2858
 5748SOL    HW222764   0.475   3.988   3.391  0.4860  0.9024 -0.7133
 5748SOL    HW322765   0.581   3.954   3.494  0.3812 -2.3226 -1.5465
 5748SOL    MW422766   0.557   3.993   3.419 -0.1200 -0.4238 -0.0708
 5749SOL     OW22767   3.800   4.282   4.986 -0.1121  0.1550 -0.2824
 5749SOL    HW222768   3.738   4.339   4.941 -0.4852 -0.7000 -0.8804
 5749SOL    HW322769   3.846   4.237   4.915  1.3236  0.8826  0.1392
 5749SOL    MW422770   3.798   4.284   4.970  0.6285  0.3847 -0.2532
 5750SOL     OW22771   5.411   4.635   3.483 -0.0585 -0.4933 -0.5919
 5750SOL    HW222772   5.394   4.729   3.475  0.7293 -0.3509 -0.6400
 5750SOL    HW322773   5.328   4.594   3.457 -1.1142  0.2169  1.4658
 5750SOL    MW422774   5.398   4.642   3.478 -0.5397  0.3568 -0.1106
 5751SOL     OW22775   0.079   4.017   5.588  0.1199 -0.0213  0.2019
 5751SOL    HW222776   0.136   4.078   5.636  1.0620 -1.2928  0.7836
 5751SOL    HW322777   0.059   4.061   5.506  2.5657  0.2221 -0.3462
 5751SOL    MW422778   0.084   4.031   5.584  0.4486 -0.3383 -0.3446
 5752SOL     OW22779   4.018   2.609   0.621  0.4745 -0.3651  0.2567
 5752SOL    HW222780   4.033   2.686   0.675 -3.0583  0.8123 -0.1956
 5752SOL    HW322781   4.091   2.550   0.643  1.8891  2.0093  2.5346
 5752SOL    MW422782   4.030   2.611   0.631 -0.4578 -0.0960 -0.2372
 5753SOL     OW22783   2.186   0.605   1.232  0.2099 -0.3001  0.2126
 5753SOL    HW222784   2.164   0.696   1.254 -0.1059 -0.4188  0.3763
 5753SOL    HW322785   2.104   0.557   1.241  0.9868 -1.2508  3.3780
 5753SOL    MW422786   2.173   0.611   1.236 -0.2917 -0.5927  0.6358
 5754SOL     OW22787   5.095   2.393   5.829  0.2968  0.6481 -0.8460
 5754SOL    HW222788   5.104   2.426   5.918 -1.6853 -1.7854  0.3984
 5754SOL    HW322789   5.030   2.449   5.788 -2.0869 -0.7114  0.8037
 5754SOL    MW422790   5.088   2.404   5.836 -0.0028 -0.5198  0.2745
 5755SOL     OW22791   1.679   6.021   1.198  0.0171  0.2366 -0.3006
 5755SOL    HW222792   1.641   6.021   1.286 -2.1453 -1.8409 -1.1354
 5755SOL    HW322793   1.640   6.097   1.155 -0.5359  0.0785 -0.0860
 5755SOL    MW422794   1.669   6.031   1.204 -0.0133  0.1391 -0.1932
 5756SOL     OW22795   0.508   1.402   5.586  0.0269 -0.5771 -0.0008
 5756SOL    HW222796   0.460   1.463   5.642 -0.5370 -0.2221 -0.8559
 5756SOL    HW322797   0.598   1.406   5.618 -0.0565  0.4857  0.1345
 5756SOL    MW422798   0.514   1.410   5.598  0.2145 -0.0086  0.0860
 5757SOL     OW22799   0.139   3.576   5.762 -0.2556  0.2538  0.4324
 5757SOL    HW222800   0.194   3.538   5.693 -1.7969  0.3804 -0.9390
 5757SOL    HW322801   0.162   3.669   5.762 -1.3107  0.5503 -1.0355
 5757SOL    MW422802   0.149   3.583   5.753 -0.4131 -0.3694  0.4714
 5758SOL     OW22803   3.225   1.780   2.887  0.2193 -0.4158  0.2666
 5758SOL    HW222804   3.317   1.796   2.867  0.1420 -1.6191 -1.2422
 5758SOL    HW322805   3.177   1.848   2.840  0.3376  0.5646  1.5199
 5758SOL    MW422806   3.231   1.791   2.878  0.2942  0.1719 -0.0795
 5759SOL     OW22807   1.133   6.088   0.511  0.1251 -0.0035  0.1763
 5759SOL    HW222808   1.185   6.088   0.430  0.7574 -0.3725  0.5730
 5759SOL    HW322809   1.159   6.007   0.556 -0.1809  0.2262  0.7704
 5759SOL    MW422810   1.143   6.077   0.506 -0.0942  0.5910 -0.4683
 5760SOL     OW22811   2.863   2.356   2.319  0.4895 -0.2266  0.1483
 5760SOL    HW222812   2.935   2.372   2.257 -0.1744  2.5965 -0.0488
 5760SOL    HW322813   2.894   2.393   2.402  0.4722 -1.9281  0.9530
 5760SOL    MW422814   2.877   2.363   2.322  0.1019  0.3423 -0.3183
 5761SOL     OW22815   4.183   0.532   5.432 -0.3746  0.6849 -0.5633
 5761SOL    HW222816   4.178   0.609   5.488 -3.0638  1.7583 -2.0690
 5761SOL    HW322817   4.142   0.462   5.484  1.2593  0.4341  0.4574
 5761SOL    MW422818   4.177   0.533   5.446  0.2356 -0.1542 -0.0972
 5762SOL     OW22819   5.131   0.966   1.060 -0.6941 -0.2011 -0.3916
 5762SOL    HW222820   5.046   0.922   1.057 -2.4058  2.8290  0.2730
 5762SOL    HW322821   5.147   0.981   1.153  0.3759 -0.3173 -0.5458
 5762SOL    MW422822   5.122   0.962   1.072 -0.4759  0.2515  0.2247
 5763SOL     OW22823   1.280   0.336   2.970  0.1982  0.4332  0.0913
 5763SOL    HW222824   1.285   0.241   2.956  0.5381  0.1007  2.1301
 5763SOL    HW322825   1.360   0.357   3.019 -0.7717  1.4156  1.3325
 5763SOL    MW422826   1.291   0.326   2.975 -0.0416 -0.3995  0.0163
 5764SOL     OW22827   1.051   3.201   3.108 -0.5271  0.2396  0.1457
 5764SOL    HW222828   0.979   3.159   3.062 -1.4135  1.9413 -0.0883
 5764SOL    HW322829   1.068   3.144   3.184 -1.5740 -0.5875 -0.2227
 5764SOL    MW422830   1.044   3.188   3.112  0.5636  0.9152  0.7686
 5765SOL     OW22831   0.904   5.541   5.644  0.2749  0.3127  0.1184
 5765SOL    HW222832   0.998   5.553   5.654  0.0367  1.8082  0.9645
 5765SOL    HW322833   0.883   5.581   5.560  0.2744  0.7885  0.3434
 5765SOL    MW422834   0.913   5.548   5.635  0.0710 -0.1023  0.4886
 5766SOL     OW22835   4.795   3.332   2.837  0.5252 -0.1945  0.2591
 5766SOL    HW222836   4.839   3.253   2.805  0.8552  1.0644 -2.6860
 5766SOL    HW322837   4.702   3.315   2.824  0.6434  0.2005 -1.2290
 5766SOL    MW422838   4.789   3.319   2.831  0.0815 -0.2694  0.2369
 5767SOL     OW22839   0.607   3.052   2.832 -1.0212 -0.2770 -0.0297
 5767SOL    HW222840   0.698   3.066   2.857 -1.3282  0.2485  0.8299
 5767SOL    HW322841   0.556   3.083   2.907 -1.9598  0.9754 -1.1393
 5767SOL    MW422842   0.612   3.058   2.845  0.0090  0.4737 -0.2655
 5768SOL     OW22843   5.584   5.962   4.759  0.7774  0.3954  0.3403
 5768SOL    HW222844   5.511   5.927   4.810  1.2467  0.3760  1.0176
 5768SOL    HW322845   5.626   5.885   4.721 -0.4801  0.5134 -1.3591
 5768SOL    MW422846   5.580   5.947   4.761 -0.0762 -0.6541  0.8877
 5769SOL     OW22847   1.930   4.968   1.681  0.2271 -0.1494 -0.5901
 5769SOL    HW222848   1.860   4.966   1.616  0.1276  0.6847 -0.5138
 5769SOL    HW322849   1.902   4.906   1.748 -1.3332  1.4793  0.3376
 5769SOL    MW422850   1.917   4.959   1.681  0.1956  0.0505 -0.5411
 5770SOL     OW22851   4.976   5.004   3.425 -0.3727  0.1651 -0.0362
 5770SOL    HW222852   5.050   5.051   3.463 -1.3750  0.2188  1.9409
 5770SOL    HW322853   4.942   5.063   3.358  0.8504  0.4705 -0.4229
 5770SOL    MW422854   4.982   5.018   3.421  0.2732 -0.3848 -0.0765
 5771SOL     OW22855   5.816   0.581   3.016 -0.2524 -0.1351 -0.0171
 5771SOL    HW222856   5.857   0.666   3.003  0.7759 -0.5702  0.2728
 5771SOL    HW322857   5.887   0.524   3.047 -0.8167 -1.2039 -0.6132
 5771SOL    MW422858   5.831   0.585   3.018  0.4907  0.0720 -0.1580
 5772SOL     OW22859   4.736   0.881   5.170 -0.1053 -0.1128  0.1006
 5772SOL    HW222860   4.765   0.795   5.199  0.3113 -0.3401 -0.9339
 5772SOL    HW322861   4.810   0.915   5.119 -0.4009  0.7061  0.2073
 5772SOL    MW422862   4.750   0.874   5.167  0.1740 -0.0737 -0.4690
 5773SOL     OW22863   3.089   4.313   5.289  0.1859  0.3211  0.2411
 5773SOL    HW222864   3.130   4.381   5.237  1.6759 -0.9079 -0.2369
 5773SOL    HW322865   3.025   4.272   5.230  1.6057 -0.8226 -0.5533
 5773SOL    MW422866   3.086   4.316   5.275  0.1659 -0.3911  0.7116
 5774SOL     OW22867   1.267   1.685   0.557  0.4753 -0.5476 -0.4862
 5774SOL    HW222868   1.201   1.626   0.593  0.3727 -0.5654 -0.7028
 5774SOL    HW322869   1.250   1.769   0.601  1.3030 -0.9389  0.6333
 5774SOL    MW422870   1.256   1.688   0.568  0.0023 -0.1225 -0.2072
 5775SOL     OW22871   4.037   1.717   0.942 -0.5506 -0.4598  0.4647
 5775SOL    HW222872   4.057   1.742   0.852 -0.4967 -1.2820  0.2401
 5775SOL    HW322873   4.012   1.798   0.985  1.7350  0.3641  0.3509
 5775SOL    MW422874   4.037   1.731   0.936  1.1461 -0.2438 -0.4455
 5776SOL     OW22875   2.161   3.457   0.468  0.6353 -0.2689  0.1940
 5776SOL    HW222876   2.103   3.491   0.400  1.7337  2.8582  0.6893
 5776SOL    HW322877   2.128   3.368   0.485 -3.5086  1.0034 -0.1119
 5776SOL    MW422878   2.149   3.450   0.461 -0.3151  0.0541  0.0206
 5777SOL     OW22879   3.913   1.884   1.595 -0.0281 -0.5106  0.0421
 5777SOL    HW222880   3.995   1.841   1.619 -0.0737 -1.2933 -1.1112
 5777SOL    HW322881   3.852   1.812   1.579 -0.6906  0.0452  0.0204
 5777SOL    MW422882   3.916   1.869   1.596  0.2097  0.3899 -0.1797
 5778SOL     OW22883   2.054   0.926   0.631  0.7249  0.1857 -0.2039
 5778SOL    HW222884   2.043   0.887   0.544  1.2683  1.3994 -0.8484
 5778SOL    HW322885   2.121   0.872   0.673  0.9416 -0.0156 -0.7901
 5778SOL    MW422886   2.061   0.914   0.625  0.3028 -0.3441  0.3985
 5779SOL     OW22887   3.690   0.735   4.487 -0.2810  0.1878 -0.3222
 5779SOL    HW222888   3.622   0.728   4.554 -0.8867 -0.5630 -0.9977
 5779SOL    HW322889   3.730   0.649   4.484  2.0131  1.0950  1.3714
 5779SOL    MW422890   3.686   0.723   4.495 -0.1479 -0.0372 -0.2064
 5780SOL     OW22891   4.854   4.248   1.798 -0.9498  0.0566 -0.0572
 5780SOL    HW222892   4.907   4.182   1.753 -0.3255  0.7158 -0.3209
 5780SOL    HW322893   4.894   4.331   1.772 -1.7559  0.5381  0.2267
 5780SOL    MW422894   4.866   4.250   1.789 -0.2746 -0.1210  0.4017
 5781SOL     OW22895   2.481   1.488   0.561  0.2483 -0.2483 -0.6054
 5781SOL    HW222896   2.445   1.435   0.490  1.9686 -2.1868 -0.1498
 5781SOL    HW322897   2.422   1.472   0.635 -1.8268  2.1628 -1.6106
 5781SOL    MW422898   2.468   1.479   0.562  0.0852 -0.5568  0.1554
 5782SOL     OW22899   3.691   6.374   2.879 -0.5203 -0.5224 -0.0989
 5782SOL    HW222900   3.607   6.351   2.840  0.4508 -0.7110 -2.1952
 5782SOL    HW322901   3.754   6.367   2.807  0.7414  3.2675  0.4117
 5782SOL    MW422902   3.688   6.370   2.865 -0.5243 -0.4899  0.2174
 5783SOL     OW22903   1.475   1.659   6.163  0.2731  0.4538 -0.5740
 5783SOL    HW222904   1.478   1.726   6.231  1.0225 -0.2178  0.0578
 5783SOL    HW322905   1.393   1.678   6.116 -1.2446 -0.1864  1.6501
 5783SOL    MW422906   1.464   1.671   6.166 -0.9928  0.2052 -0.3947
 5784SOL     OW22907   4.601   2.394   0.205  0.2802  0.1815  0.0941
 5784SOL    HW222908   4.635   2.339   0.134 -0.6411 -0.0357 -0.1870
 5784SOL    HW322909   4.511   2.412   0.180  0.5838  1.9003  0.1471
 5784SOL    MW422910   4.594   2.389   0.193  0.4024 -0.6005  0.6391
 5785SOL     OW22911   3.679   4.160   5.619 -0.0942 -0.5592  0.1556
 5785SOL    HW222912   3.660   4.252   5.601 -1.9871 -1.2814 -2.0298
 5785SOL    HW322913   3.768   4.148   5.586 -0.1638  0.2913 -0.3787
 5785SOL    MW422914   3.688   4.171   5.612 -0.3563 -0.7921  0.2639
 5786SOL     OW22915   0.169   0.779   1.191 -0.2966 -0.3693  0.6638
 5786SOL    HW222916   0.226   0.795   1.116 -2.0034 -0.6247 -0.7685
 5786SOL    HW322917   0.224   0.794   1.268  1.3240  0.6171 -0.6338
 5786SOL    MW422918   0.183   0.783   1.191 -0.1817 -0.3487  0.3631
 5787SOL     OW22919   2.691   6.082   2.419  0.3248 -0.0966  0.1096
 5787SOL    HW222920   2.624   6.151   2.415 -0.5689 -0.9935 -2.2962
 5787SOL    HW322921   2.755   6.108   2.353 -1.4349 -2.7958 -2.9482
 5787SOL    MW422922   2.691   6.095   2.410 -0.0134 -0.3403  0.3428
 5788SOL     OW22923   0.221   5.396   6.368  0.1167 -0.5070  0.0749
 5788SOL    HW222924   0.232   5.317   6.315 -0.6141 -0.1846 -0.5715
 5788SOL    HW322925   0.297   5.450   6.347  0.1063 -0.6105 -0.2324
 5788SOL    MW422926   0.233   5.393   6.358 -0.2286  0.0939  0.3350
 5789SOL     OW22927   5.859   5.979   6.290 -0.7362  0.3599  0.4010
 5789SOL    HW222928   5.949   5.989   6.259 -1.2443 -0.3528 -1.4159
 5789SOL    HW322929   5.809   6.045   6.241 -1.4024 -0.0890  0.4658
 5789SOL    MW422930   5.864   5.989   6.280  0.8017 -0.3235 -0.7806
 5790SOL     OW22931   3.918   0.892   4.589 -0.0507  0.0963 -0.2132
 5790SOL    HW222932   3.832   0.856   4.570  0.1433 -1.4832  1.5802
 5790SOL    HW322933   3.924   0.891   4.685  2.1526 -0.3364 -0.3061
 5790SOL    MW422934   3.907   0.887   4.599  0.2734 -0.0157  0.6144
 5791SOL     OW22935   2.637   0.902   4.840 -0.2176 -0.2097  0.4371
 5791SOL    HW222936   2.632   0.895   4.935  0.8405 -1.0114  0.4670
 5791SOL    HW322937   2.592   0.824   4.808 -0.0350 -0.2663  0.3127
 5791SOL    MW422938   2.631   0.890   4.848  0.2885  0.4713  0.0290
 5792SOL     OW22939   2.008   6.197   4.058  0.0215  0.1884  0.2601
 5792SOL    HW222940   2.074   6.138   4.023 -0.4425 -0.5758  0.6379
 5792SOL    HW322941   2.050   6.282   4.060  0.5916 -0.0613 -0.6170
 5792SOL    MW422942   2.022   6.200   4.054  0.7095 -0.1853  0.0452
 5793SOL     OW22943   3.941   2.540   3.178 -0.2027 -0.4186 -0.1833
 5793SOL    HW222944   3.958   2.483   3.252 -1.6396  1.0981  1.4165
 5793SOL    HW322945   3.855   2.513   3.146 -0.4541  0.2000 -0.0410
 5793SOL    MW422946   3.932   2.529   3.183 -0.4998  0.3350 -0.4607
 5794SOL     OW22947   6.069   4.810   5.513 -0.0696 -0.0195 -0.5685
 5794SOL    HW222948   6.159   4.843   5.510 -0.2450  0.4332 -2.1117
 5794SOL    HW322949   6.035   4.828   5.425 -1.4511 -0.7952 -0.2154
 5794SOL    MW422950   6.076   4.817   5.501  0.0788  0.4656 -0.7079
 5795SOL     OW22951   1.699   4.668   4.565  0.1962  0.3500 -0.2494
 5795SOL    HW222952   1.606   4.644   4.562 -0.1645  1.7878 -1.7980
 5795SOL    HW322953   1.724   4.654   4.657 -1.7654  0.7354  0.3930
 5795SOL    MW422954   1.690   4.663   4.577  0.1352 -0.2688  0.1944
 5796SOL     OW22955   3.637   0.236   1.007 -0.1244 -0.1811 -0.4242
 5796SOL    HW222956   3.655   0.256   0.915  0.5636  0.5941 -0.1387
 5796SOL    HW322957   3.547   0.204   1.008 -0.3395  0.3630 -1.2906
 5796SOL    MW422958   3.628   0.235   0.995 -0.2348  0.0636  0.1259
 5797SOL     OW22959   3.879   2.588   0.136  0.0244  0.3863 -0.0159
 5797SOL    HW222960   3.892   2.644   0.212  0.2525  0.2085  0.0793
 5797SOL    HW322961   3.940   2.622   0.070  0.9659 -0.4064  0.4077
 5797SOL    MW422962   3.889   2.600   0.137 -0.0661 -0.8119  0.1603
 5798SOL     OW22963   3.208   2.766   1.984 -0.0585  0.3104  0.8220
 5798SOL    HW222964   3.256   2.846   2.005 -0.0440  0.8397 -1.0207
 5798SOL    HW322965   3.116   2.788   2.000  0.0666  0.2013  1.7176
 5798SOL    MW422966   3.202   2.779   1.989  0.6991  0.1949 -0.3034
 5799SOL     OW22967   5.659   5.636   5.643  0.3424 -0.0514 -0.0314
 5799SOL    HW222968   5.590   5.692   5.608  1.6118  1.1399 -0.7422
 5799SOL    HW322969   5.708   5.607   5.566  0.8143 -0.6435  0.4797
 5799SOL    MW422970   5.656   5.640   5.628 -0.4170 -0.2712 -0.0662
 5800SOL     OW22971   5.864   2.924   0.426 -0.7512  0.2802  0.3727
 5800SOL    HW222972   5.772   2.945   0.446 -0.7725 -0.1347  0.7266
 5800SOL    HW322973   5.878   2.962   0.339 -1.9527 -1.5957 -0.7258
 5800SOL    MW422974   5.853   2.932   0.417 -0.2725  0.3473  0.2563
 5801SOL     OW22975   2.071   0.702   6.145  0.3552 -0.0224  0.8987
 5801SOL    HW222976   2.085   0.626   6.202  3.3022 -0.1643  0.1646
 5801SOL    HW322977   2.091   0.777   6.200  1.5398 -0.0674  0.5647
 5801SOL    MW422978   2.076   0.702   6.160 -0.0433  0.3401 -0.2926
 5802SOL     OW22979   6.103   1.915   5.639 -0.0267  0.5643  0.6156
 5802SOL    HW222980   6.116   1.859   5.715 -1.1993  1.2846  1.3644
 5802SOL    HW322981   6.029   1.971   5.662  0.3845  1.6459 -0.5599
 5802SOL    MW422982   6.095   1.915   5.652 -0.1949  0.0487 -0.0417
 5803SOL     OW22983   0.674   4.473   6.187 -0.2168  0.1067 -0.3384
 5803SOL    HW222984   0.626   4.474   6.270 -1.5532  1.0104 -1.0903
 5803SOL    HW322985   0.668   4.563   6.155  1.0532 -0.0200 -1.0058
 5803SOL    MW422986   0.667   4.485   6.194  0.2511  0.4927  0.0629
 5804SOL     OW22987   3.261   6.170   4.404  0.3544  0.3951  0.0659
 5804SOL    HW222988   3.251   6.112   4.328 -1.2993 -0.9399  1.2013
 5804SOL    HW322989   3.264   6.258   4.367 -0.2695 -0.2212 -1.5657
 5804SOL    MW422990   3.260   6.174   4.389 -0.2400  0.7105 -0.0560
 5805SOL     OW22991   6.262   4.708   6.282  0.2727  0.2247 -0.2674
 5805SOL    HW222992   6.241   4.643   6.215 -0.5016 -0.8445  0.9593
 5805SOL    HW322993   6.204   4.782   6.264 -0.5232 -0.3959 -0.2881
 5805SOL    MW422994   6.251   4.709   6.271 -0.3071 -0.0046  0.1677
 5806SOL     OW22995   2.455   2.574   3.344  0.3090  0.5762 -0.6297
 5806SOL    HW222996   2.426   2.617   3.264  0.3301  0.9595 -0.4296
 5806SOL    HW322997   2.374   2.547   3.388  0.2502  1.3788 -0.2204
 5806SOL    MW422998   2.441   2.576   3.340  0.4323 -0.0359 -0.3341
 5807SOL     OW22999   4.954   5.813   1.625  0.0213  0.5218  0.3276
 5807SOL    HW223000   4.969   5.745   1.692  2.6450  1.4576  0.8224
 5807SOL    HW323001   4.968   5.895   1.672 -2.7800  1.4575 -0.3442
 5807SOL    MW423002   4.958   5.815   1.640 -0.3547 -0.4502  0.7198
 5808SOL     OW23003   0.769   0.512   3.700 -0.7973  0.1172 -0.1304
 5808SOL    HW223004   0.796   0.427   3.734 -0.6522  0.7926  1.5895
 5808SOL    HW323005   0.759   0.499   3.606  0.3534 -1.4863 -0.0703
 5808SOL    MW423006   0.771   0.499   3.692 -0.3440  0.1398 -0.2166
 5809SOL     OW23007   5.966   0.554   1.103  0.4088  0.0288  0.1949
 5809SOL    HW223008   5.915   0.580   1.179 -1.1931 -1.5479 -0.2803
 5809SOL    HW323009   6.045   0.514   1.140  0.7557  1.3569  0.9523
 5809SOL    MW423010   5.970   0.552   1.117  0.3591  0.3612  0.0112
 5810SOL     OW23011   5.193   4.283   1.356 -0.1360  0.2443  0.6838
 5810SOL    HW223012   5.254   4.341   1.310 -0.5318  0.5253  0.5071
 5810SOL    HW323013   5.222   4.195   1.333  0.4328  0.3724  0.9051
 5810SOL    MW423014   5.205   4.279   1.347  0.4020  0.1000  0.4993
 5811SOL     OW23015   3.934   1.743   3.074 -0.1783 -0.4218  0.4232
 5811SOL    HW223016   3.994   1.806   3.035 -0.1262 -0.5644  0.2731
 5811SOL    HW323017   3.985   1.701   3.144  0.4251 -1.6720 -0.7241
 5811SOL    MW423018   3.949   1.746   3.078  0.0253  0.2040 -0.4386
 5812SOL     OW23019   1.052   0.482   5.043 -0.5577 -0.1884 -0.3099
 5812SOL    HW223020   1.134   0.525   5.021  1.3654 -3.5890 -0.4246
 5812SOL    HW323021   1.020   0.448   4.959 -0.5243 -1.3560  0.1348
 5812SOL    MW423022   1.058   0.483   5.029 -0.4548 -0.6081 -0.6842
 5813SOL     OW23023   1.561   1.271   2.620 -0.2774 -0.0910 -0.4632
 5813SOL    HW223024   1.552   1.316   2.704  1.2822  0.5183 -0.5847
 5813SOL    HW323025   1.518   1.330   2.557 -0.1034  0.2105 -0.3047
 5813SOL    MW423026   1.554   1.285   2.623  0.0339 -0.3687  0.0290
 5814SOL     OW23027   0.723   1.938   1.070 -0.2870 -1.1245 -0.1766
 5814SOL    HW223028   0.684   2.008   1.019  0.9135  0.2141  0.6535
 5814SOL    HW323029   0.768   1.883   1.006  1.1639  0.4968 -0.6189
 5814SOL    MW423030   0.724   1.940   1.055  0.8121 -0.2858  0.1884
 5815SOL     OW23031   6.321   4.824   0.574  0.3227 -0.1763  0.4183
 5815SOL    HW223032   6.262   4.773   0.519  1.1574 -0.9134  0.1733
 5815SOL    HW323033   6.408   4.791   0.552  0.9585  1.7457 -0.1596
 5815SOL    MW423034   6.325   4.813   0.564 -0.1022  0.0341 -0.4701
 5816SOL     OW23035   3.318   5.787   4.256 -0.2149 -0.2931  0.2764
 5816SOL    HW223036   3.269   5.706   4.269  0.1539 -0.5279  0.2142
 5816SOL    HW323037   3.253   5.856   4.268 -0.6514 -0.6106 -0.1789
 5816SOL    MW423038   3.303   5.785   4.259 -0.4761 -0.0504  0.0031
 5817SOL     OW23039   5.145   5.352   1.654 -0.1059 -0.2265 -0.1345
 5817SOL    HW223040   5.212   5.301   1.699  0.8550  1.9162  1.0504
 5817SOL    HW323041   5.194   5.402   1.588 -0.7976  0.1023 -0.4046
 5817SOL    MW423042   5.160   5.352   1.651  0.6926  0.3032  0.1015
 5818SOL     OW23043   5.630   3.866   0.638 -0.0396  0.0237 -0.0594
 5818SOL    HW223044   5.603   3.798   0.700 -0.0738  1.6141  1.7448
 5818SOL    HW323045   5.697   3.824   0.584 -0.7650 -1.7209  0.3343
 5818SOL    MW423046   5.635   3.851   0.639 -0.3172 -0.4274 -0.2640
 5819SOL     OW23047   4.877   6.392   2.113 -0.2523 -0.4957 -0.6265
 5819SOL    HW223048   4.951   6.393   2.173  0.0639 -0.3026 -1.0134
 5819SOL    HW323049   4.911   6.354   2.032 -0.5890 -0.4677 -0.7869
 5819SOL    MW423050   4.891   6.387   2.110 -0.3531 -0.0794  0.3631
 5820SOL     OW23051   2.236   1.077   4.566 -0.2622  0.5229  0.3181
 5820SOL    HW223052   2.258   0.986   4.545 -1.1905  0.3350  0.1156
 5820SOL    HW323053   2.289   1.129   4.506  1.1669  0.1742  1.2232
 5820SOL    MW423054   2.246   1.072   4.556 -0.1913  0.7967 -0.4734
 5821SOL     OW23055   5.950   2.859   5.763  0.0935 -0.1440  0.2551
 5821SOL    HW223056   5.949   2.794   5.833  0.7937 -0.1472  0.2708
 5821SOL    HW323057   5.869   2.844   5.715 -0.0155 -0.6639  0.5931
 5821SOL    MW423058   5.940   2.848   5.766 -0.2090  0.7059  0.0780
 5822SOL     OW23059   4.619   0.780   3.908  0.3955 -0.4732 -0.5232
 5822SOL    HW223060   4.680   0.847   3.939 -0.5175 -0.5799  1.7603
 5822SOL    HW323061   4.672   0.722   3.853  1.9002  0.4479 -0.0978
 5822SOL    MW423062   4.634   0.781   3.905  0.4286 -0.5294  0.4262
 5823SOL     OW23063   4.603   3.218   5.854 -0.3309 -0.0090  0.3355
 5823SOL    HW223064   4.530   3.191   5.798 -0.9043  0.6019  0.7748
 5823SOL    HW323065   4.672   3.242   5.792 -0.1703 -1.4326 -0.0769
 5823SOL    MW423066   4.602   3.218   5.838  0.0023 -0.5854 -0.3371
 5824SOL     OW23067   2.288   3.983   4.897 -0.4864 -0.0805 -0.1922
 5824SOL    HW223068   2.329   3.901   4.869 -0.9342 -0.6952  0.9048
 5824SOL    HW323069   2.257   4.023   4.815  0.3184 -0.6718 -0.8084
 5824SOL    MW423070   2.289   3.978   4.882 -0.1038  0.2692 -0.4121
 5825SOL     OW23071   4.341   4.272   2.679 -0.7351  0.1461 -0.5391
 5825SOL    HW223072   4.328   4.350   2.732  0.8398 -0.7644  1.3331
 5825SOL    HW323073   4.356   4.202   2.743  2.0462 -0.8750 -2.1136
 5825SOL    MW423074   4.341   4.273   2.695  0.2467  0.1302  0.5343
 5826SOL     OW23075   0.376   0.426   5.557  0.1146 -0.5074  0.4744
 5826SOL    HW223076   0.442   0.384   5.501  0.5646 -0.2241  0.7820
 5826SOL    HW323077   0.296   0.424   5.506  0.5326 -0.2105 -0.2055
 5826SOL    MW423078   0.374   0.420   5.543 -0.6571 -0.1231 -0.1025
 5827SOL     OW23079   1.706   3.203   1.282  0.3112  0.0648  0.1392
 5827SOL    HW223080   1.689   3.217   1.189 -0.9135  1.5571  0.5514
 5827SOL    HW323081   1.688   3.110   1.297  0.4400 -0.1694 -1.0743
 5827SOL    MW423082   1.702   3.192   1.272 -0.0305 -0.7795  0.0934
 5828SOL     OW23083   3.439   3.901   0.691  0.3404  0.1653 -0.2336
 5828SOL    HW223084   3.471   3.960   0.623  1.0952 -2.3236 -2.1961
 5828SOL    HW323085   3.481   3.817   0.672 -1.6299 -1.3568  1.6215
 5828SOL    MW423086   3.448   3.898   0.680 -0.1045  0.4445  0.3132
 5829SOL     OW23087   2.678   4.841   1.501 -0.7127  0.2938 -0.4402
 5829SOL    HW223088   2.661   4.909   1.566  1.1022 -0.0293  0.4270
 5829SOL    HW323089   2.671   4.886   1.416  0.8606  1.7095  0.1163
 5829SOL    MW423090   2.675   4.856   1.498 -0.2119  0.0692  0.5600
 5830SOL     OW23091   0.530   3.436   0.617 -0.7479  0.2204 -0.1157
 5830SOL    HW223092   0.529   3.496   0.692 -0.1227  1.2207 -0.8658
 5830SOL    HW323093   0.447   3.452   0.572 -0.0960  1.4671 -0.9756
 5830SOL    MW423094   0.519   3.446   0.621  0.3537  0.1108  0.2269
 5831SOL     OW23095   6.165   3.563   0.198 -0.0947 -0.0123  0.2698
 5831SOL    HW223096   6.259   3.572   0.213  0.0390 -2.2684  1.1873
 5831SOL    HW323097   6.157   3.492   0.135 -1.2034  0.4307 -0.1260
 5831SOL    MW423098   6.176   3.555   0.192 -0.0274 -0.0394 -0.2006
 5832SOL     OW23099   4.305   2.457   3.515 -0.4637 -0.2826 -0.2865
 5832SOL    HW223100   4.255   2.415   3.584 -1.0712  1.1066  0.1527
 5832SOL    HW323101   4.396   2.450   3.543 -0.4138 -2.2132 -0.7591
 5832SOL    MW423102   4.311   2.450   3.528 -0.4264 -0.2997  0.4164
 5833SOL     OW23103   5.566   6.256   5.398 -0.0196  0.3350 -0.0196
 5833SOL    HW223104   5.640   6.201   5.425  0.5844  0.9109 -0.4783
 5833SOL    HW323105   5.527   6.286   5.480 -1.8975 -2.7069  0.3754
 5833SOL    MW423106   5.571   6.253   5.412  0.0694 -0.4205  0.3466
 5834SOL     OW23107   0.693   6.000   0.013 -0.1853  0.0212 -0.0451
 5834SOL    HW223108   0.721   6.081   0.056  0.8695 -0.7354  0.7171
 5834SOL    HW323109   0.653   6.030  -0.069  0.1917  1.3099  0.2183
 5834SOL    MW423110   0.691   6.015   0.008  0.3674  0.0536  0.1561
 5835SOL     OW23111   3.922   0.356   1.659 -0.2070 -0.0136 -0.0344
 5835SOL    HW223112   4.014   0.356   1.685  0.0002 -0.0581 -0.7446
 5835SOL    HW323113   3.883   0.283   1.707  0.8406 -2.0526 -2.1216
 5835SOL    MW423114   3.929   0.346   1.669  0.4000 -0.2683 -0.2786
 5836SOL     OW23115   6.021   0.066   0.641 -0.1830  0.0222 -0.2840
 5836SOL    HW223116   6.034  -0.026   0.619 -1.0040 -0.2077  0.1322
 5836SOL    HW323117   5.983   0.064   0.729  0.1774  0.7761 -0.1030
 5836SOL    MW423118   6.018   0.054   0.650  0.1055  0.6872  0.6711
 5837SOL     OW23119   3.506   3.515   0.130  0.1305 -0.1663 -0.7907
 5837SOL    HW223120   3.415   3.489   0.115 -0.9631  2.8135 -0.0634
 5837SOL    HW323121   3.513   3.600   0.087  2.2061  0.2494  0.3015
 5837SOL    MW423122   3.495   3.522   0.122  0.1220  0.3485  0.2109
 5838SOL     OW23123   0.395   1.617   1.780 -0.3340  0.4631  0.0945
 5838SOL    HW223124   0.310   1.616   1.735 -0.0761 -0.5291 -0.3921
 5838SOL    HW323125   0.376   1.658   1.865 -0.7423  2.8582 -1.0478
 5838SOL    MW423126   0.381   1.623   1.785 -0.3672  0.4332  0.1018
 5839SOL     OW23127   4.660   6.326   4.615 -0.1741 -0.7325 -0.2960
 5839SOL    HW223128   4.636   6.373   4.694  0.5947 -1.9030  0.6753
 5839SOL    HW323129   4.589   6.345   4.553 -1.0340 -0.1830  0.8290
 5839SOL    MW423130   4.647   6.334   4.617 -0.5607  0.1453 -0.4286
 5840SOL     OW23131   5.457   0.354   2.305 -0.2780 -0.1484  0.0913
 5840SOL    HW223132   5.515   0.430   2.314  0.1586 -0.2046 -1.7520
 5840SOL    HW323133   5.372   0.392   2.282  0.3950 -0.1859 -2.8514
 5840SOL    MW423134   5.453   0.369   2.303  0.2141 -0.1518 -0.1144
 5841SOL     OW23135   1.135   2.109   2.349  0.2242  0.1183 -0.4116
 5841SOL    HW223136   1.176   2.026   2.324 -0.3905 -1.0024  2.0426
 5841SOL    HW323137   1.208   2.170   2.357  0.8305 -0.4950 -1.0585
 5841SOL    MW423138   1.150   2.106   2.347  0.4591  0.1480  1.2670
 5842SOL     OW23139   2.767   0.795   1.450  0.0335 -0.1967  0.1141
 5842SOL    HW223140   2.702   0.770   1.385 -1.2274  3.0396 -0.0395
 5842SOL    HW323141   2.836   0.838   1.400 -0.6342  1.7385  0.7844
 5842SOL    MW423142   2.768   0.797   1.435  0.4092 -0.1747  0.3707
 5843SOL     OW23143   2.739   4.616   3.404  0.3592  0.8009  0.0347
 5843SOL    HW223144   2.724   4.524   3.425 -0.4995  0.6180 -1.2904
 5843SOL    HW323145   2.835   4.626   3.405  0.4303  0.1309  1.0913
 5843SOL    MW423146   2.750   4.606   3.407  0.0370  0.1828 -0.3783
 5844SOL     OW23147   1.745   2.926   3.492 -0.1077 -0.4379  0.4477
 5844SOL    HW223148   1.808   2.890   3.429  0.5953  1.2740  0.1213
 5844SOL    HW323149   1.679   2.970   3.438 -0.6470 -0.7423  0.8494
 5844SOL    MW423150   1.745   2.927   3.476 -0.4422  0.4491  0.2847
 5845SOL     OW23151   1.806   4.088   4.546  0.1363  0.3456  0.3319
 5845SOL    HW223152   1.795   4.049   4.633  1.3474 -0.5662  0.1179
 5845SOL    HW323153   1.825   4.180   4.563 -0.4719  0.3607  0.9812
 5845SOL    MW423154   1.807   4.095   4.560 -0.4555 -0.6267  0.2395
 5846SOL     OW23155   6.142   1.362   5.876 -0.0845 -0.3990 -0.5016
 5846SOL    HW223156   6.120   1.374   5.784  0.7771 -1.1800 -0.8305
 5846SOL    HW323157   6.065   1.393   5.924 -0.4114  0.3223 -1.4669
 5846SOL    MW423158   6.129   1.368   5.870 -0.0499  0.3483 -0.1590
 5847SOL     OW23159   3.129   0.481   1.942 -0.2043  0.7115 -0.4246
 5847SOL    HW223160   3.081   0.522   2.015  0.5718  2.0556 -0.6438
 5847SOL    HW323161   3.193   0.547   1.915  0.5332 -0.3508 -1.3494
 5847SOL    MW423162   3.131   0.495   1.948  0.0404 -0.1284 -0.3509
 5848SOL     OW23163   0.897   5.827   2.668  0.0194  0.1357 -0.3102
 5848SOL    HW223164   0.955   5.797   2.597  0.4012  0.0886  0.0213
 5848SOL    HW323165   0.941   5.904   2.704  0.0183 -0.0668  0.1281
 5848SOL    MW423166   0.910   5.833   2.663  0.2266  1.0028  0.5701
 5849SOL     OW23167   4.414   3.061   5.690 -0.1502 -0.6565  0.3543
 5849SOL    HW223168   4.389   2.978   5.649 -2.1977 -0.4765  1.0905
 5849SOL    HW323169   4.367   3.127   5.639  1.9973  0.1614 -0.6506
 5849SOL    MW423170   4.404   3.058   5.678 -0.0146  0.4303 -0.2561
 5850SOL     OW23171   1.320   1.044   0.416  0.5644 -0.1345  0.1531
 5850SOL    HW223172   1.324   1.137   0.439 -0.3227 -0.5440  2.1612
 5850SOL    HW323173   1.227   1.027   0.404  0.8442 -0.3654 -2.2903
 5850SOL    MW423174   1.308   1.054   0.417  0.4912  0.3134 -0.6527
 5851SOL     OW23175   2.235   4.102   2.509 -0.1821  0.1942  0.2418
 5851SOL    HW223176   2.238   4.196   2.496 -0.1547  0.0801 -0.6661
 5851SOL    HW323177   2.142   4.080   2.507 -0.1767  0.1746  0.1798
 5851SOL    MW423178   2.223   4.111   2.507 -0.1587 -0.3340  0.3345
 5852SOL     OW23179   5.626   5.047   5.037  0.2752 -0.9021  0.1275
 5852SOL    HW223180   5.695   5.112   5.046  0.6484 -1.2580 -0.1111
 5852SOL    HW323181   5.560   5.090   4.983  0.8936 -1.0050 -0.7295
 5852SOL    MW423182   5.626   5.061   5.031 -0.3325 -0.2298  0.1791
 5853SOL     OW23183   6.324   2.079   1.950  0.0792  0.3909 -0.6752
 5853SOL    HW223184   6.245   2.087   1.897 -0.5431  1.0994  0.3132
 5853SOL    HW323185   6.375   2.011   1.907 -1.8551 -1.3757 -0.3883
 5853SOL    MW423186   6.320   2.071   1.937 -0.0178 -0.1752  0.1176
 5854SOL     OW23187   1.023   5.543   5.342  0.0604 -0.0673 -0.2435
 5854SOL    HW223188   1.000   5.450   5.343  0.4657 -0.1726  0.9881
 5854SOL    HW323189   0.941   5.589   5.361 -0.0522 -0.1943 -0.4236
 5854SOL    MW423190   1.009   5.537   5.345  0.4779 -0.1696  0.3420
 5855SOL     OW23191   2.975   4.226   5.538  0.1249  0.2248  0.7015
 5855SOL    HW223192   2.945   4.289   5.604  1.5917 -0.3448  1.9618
 5855SOL    HW323193   3.016   4.280   5.470  0.0794  0.7037  1.0515
 5855SOL    MW423194   2.976   4.242   5.537 -0.0452 -0.0766 -0.2657
 5856SOL     OW23195   6.181   4.506   0.066 -0.3590  0.4021  0.3359
 5856SOL    HW223196   6.193   4.565  -0.008 -1.5658 -1.1449 -1.1752
 5856SOL    HW323197   6.092   4.472   0.055 -0.4398 -0.1436  2.3042
 5856SOL    MW423198   6.171   4.509   0.055 -0.0380  0.3498 -0.5038
 5857SOL     OW23199   2.918   4.258   4.487  0.2457  0.1165 -0.1771
 5857SOL    HW223200   2.881   4.331   4.437 -0.1317 -1.3329 -2.1494
 5857SOL    HW323201   3.012   4.263   4.470  0.1990  0.0263 -0.4614
 5857SOL    MW423202   2.926   4.269   4.478 -0.4054 -0.2893  0.3680
 5858SOL     OW23203   2.583   2.861   0.432 -0.4149  0.2950 -0.5815
 5858SOL    HW223204   2.631   2.783   0.458  0.4308  0.6885 -0.9200
 5858SOL    HW323205   2.512   2.869   0.496  0.4142  0.1138  0.3794
 5858SOL    MW423206   2.580   2.852   0.444  0.2058 -0.0789  0.2862
 5859SOL     OW23207   5.393   0.418   5.960  0.3907  0.1645  0.0562
 5859SOL    HW223208   5.358   0.499   5.923  0.6920 -0.6006 -2.0348
 5859SOL    HW323209   5.322   0.355   5.952  0.9892 -0.4314 -0.7841
 5859SOL    MW423210   5.379   0.421   5.954  0.4263 -0.0646  0.0508
 5860SOL     OW23211   6.224   4.473   3.263 -0.5200 -0.4769 -0.8697
 5860SOL    HW223212   6.224   4.479   3.167  1.4099  2.0494 -0.8173
 5860SOL    HW323213   6.308   4.433   3.285 -0.1870  0.5530 -0.2101
 5860SOL    MW423214   6.235   4.469   3.253  0.0791 -0.7520  0.3852
 5861SOL     OW23215   6.406   1.094   0.295 -0.0145  0.0931 -0.1164
 5861SOL    HW223216   6.481   1.115   0.239  0.2439  0.0840  0.2279
 5861SOL    HW323217   6.370   1.180   0.318  0.7837  0.1610  0.9362
 5861SOL    MW423218   6.411   1.108   0.290  0.0298 -0.2670  0.1465
 5862SOL     OW23219   1.327   0.107   1.260  0.2660 -0.2153 -0.7115
 5862SOL    HW223220   1.283   0.025   1.283  0.5418  0.0467  0.8941
 5862SOL    HW323221   1.354   0.144   1.345  0.7289  1.2066 -1.4502
 5862SOL    MW423222   1.325   0.101   1.274 -0.1665 -0.2761 -0.0579
 5863SOL     OW23223   1.730   1.322   4.904 -0.5296 -0.0237  0.2670
 5863SOL    HW223224   1.808   1.307   4.957 -0.3283  1.1551  0.3342
 5863SOL    HW323225   1.730   1.416   4.887 -1.2587 -0.1932 -0.7974
 5863SOL    MW423226   1.740   1.332   4.908 -0.1689 -0.0214  0.6517
 5864SOL     OW23227   5.385   4.240   0.455 -0.3626 -0.2721 -0.5870
 5864SOL    HW223228   5.429   4.201   0.531  0.4079  1.2342 -0.2256
 5864SOL    HW323229   5.376   4.168   0.393 -0.9094 -1.5224  0.8772
 5864SOL    MW423230   5.389   4.226   0.457  0.5564 -0.0096 -0.2383
 5865SOL     OW23231   2.966   1.176   4.862 -0.4978 -0.1543 -0.0198
 5865SOL    HW223232   3.054   1.182   4.825 -0.6985 -1.8314 -0.8556
 5865SOL    HW323233   2.965   1.091   4.907 -1.7511 -0.2541 -0.2200
 5865SOL    MW423234   2.978   1.166   4.863  0.5652 -0.6024  0.4603
 5866SOL     OW23235   0.309   2.777   2.616  0.1320  0.3036 -0.4658
 5866SOL    HW223236   0.219   2.759   2.643  0.3738  2.0059  1.7185
 5866SOL    HW323237   0.308   2.868   2.587  1.2469  0.5447  0.1965
 5866SOL    MW423238   0.297   2.786   2.616 -0.3824 -0.0806 -0.1310
 5867SOL     OW23239   3.681   2.454   5.219 -1.0517 -0.8233 -0.1718
 5867SOL    HW223240   3.762   2.462   5.270 -0.6584 -1.0689 -0.7514
 5867SOL    HW323241   3.708   2.463   5.128 -1.6396 -1.1662 -0.3897
 5867SOL    MW423242   3.695   2.456   5.214  0.1015  0.1537  0.5271
 5868SOL     OW23243   6.029   3.871   1.004  0.1614 -0.3283 -0.2352
 5868SOL    HW223244   6.009   3.777   1.004 -1.7040  0.0098  1.1884
 5868SOL    HW323245   5.967   3.910   0.942  0.2435  0.0840 -0.0643
 5868SOL    MW423246   6.018   3.864   0.996  0.4125  0.3801  0.3653
 5869SOL     OW23247   4.545   3.524   2.519 -0.2396 -0.4641 -0.3669
 5869SOL    HW223248   4.606   3.532   2.446 -0.3606 -1.3065 -0.5724
 5869SOL    HW323249   4.529   3.430   2.527 -1.3984 -0.2727 -0.2238
 5869SOL    MW423250   4.551   3.513   2.510 -0.7659 -0.7785 -0.0717
 5870SOL     OW23251   0.978   5.544   2.450  0.5490  0.2323  0.1301
 5870SOL    HW223252   1.008   5.622   2.405  0.0721  0.1681 -0.3164
 5870SOL    HW323253   1.040   5.476   2.424  0.2551  0.1869 -0.4663
 5870SOL    MW423254   0.990   5.545   2.441  0.3580 -0.2769  0.1507
 5871SOL     OW23255   4.847   6.079   6.097 -0.1079  0.1026  0.0296
 5871SOL    HW223256   4.933   6.086   6.138 -1.1162  0.2621  2.2681
 5871SOL    HW323257   4.837   5.986   6.078  0.5363  0.0844 -0.2645
 5871SOL    MW423258   4.857   6.068   6.100  0.1373 -0.4706  0.3406
 5872SOL     OW23259   2.203   4.378   4.540 -0.2769  0.0777 -0.0224
 5872SOL    HW223260   2.126   4.433   4.556 -0.8474 -0.1902 -1.6550
 5872SOL    HW323261   2.199   4.358   4.447  2.2811  0.8034 -0.3457
 5872SOL    MW423262   2.192   4.383   4.530 -0.2175 -0.2562  0.3742
 5873SOL     OW23263   2.234   4.947   4.847  0.2631 -0.3892 -0.0122
 5873SOL    HW223264   2.216   4.868   4.898  0.6847  0.2450  1.1332
 5873SOL    HW323265   2.327   4.963   4.860  0.4011 -0.2654 -1.0711
 5873SOL    MW423266   2.244   4.939   4.855 -0.6824  0.0426 -0.6493
 5874SOL     OW23267   2.232   1.030   5.784  0.0173  0.6412  0.2526
 5874SOL    HW223268   2.165   0.976   5.742 -1.3886  2.6215 -0.2354
 5874SOL    HW323269   2.313   1.010   5.736  0.1201 -2.5657  1.5294
 5874SOL    MW423270   2.234   1.021   5.772 -0.0724 -0.4436  0.0080
 5875SOL     OW23271   6.030   2.618   5.953 -0.2861  0.2426  0.4300
 5875SOL    HW223272   6.035   2.546   5.890  0.5027  2.0031 -1.6540
 5875SOL    HW323273   6.115   2.619   5.995 -0.7979 -0.9081  1.5593
 5875SOL    MW423274   6.042   2.609   5.950  0.1502  0.4621 -0.0639
 5876SOL     OW23275   2.116   0.874   5.250 -0.3351  0.0657 -0.1193
 5876SOL    HW223276   2.045   0.852   5.310  1.1575 -2.4043  0.8921
 5876SOL    HW323277   2.195   0.868   5.303  0.9094 -0.6350 -1.9515
 5876SOL    MW423278   2.117   0.870   5.265  0.1274 -0.6851  0.2998
 5877SOL     OW23279   1.075   5.734   0.270  0.3263  0.2496 -0.0036
 5877SOL    HW223280   1.064   5.760   0.179  1.2219 -1.5756 -0.6782
 5877SOL    HW323281   0.987   5.736   0.307 -0.0345  1.0524 -0.8848
 5877SOL    MW423282   1.062   5.738   0.263  0.1996 -0.4797 -0.2070
 5878SOL     OW23283   0.940   2.485   6.317 -0.3285  0.7368  0.1366
 5878SOL    HW223284   0.908   2.394   6.316 -0.4587  0.7307 -2.4437
 5878SOL    HW323285   0.861   2.538   6.315 -0.2818  0.7954 -1.9707
 5878SOL    MW423286   0.926   2.480   6.316  0.5219  0.0511  0.2525
 5879SOL     OW23287   1.135   2.965   4.609  0.4134  0.8975  0.1381
 5879SOL    HW223288   1.055   2.913   4.606  0.0856  1.2577  1.6746
 5879SOL    HW323289   1.180   2.935   4.688  0.4816  2.5603  0.7559
 5879SOL    MW423290   1.130   2.954   4.619  0.0715  0.3931  0.0337
 5880SOL     OW23291   2.674   4.536   1.142  0.8506 -0.7956 -0.2564
 5880SOL    HW223292   2.708   4.467   1.200  0.0482 -1.8155 -0.9563
 5880SOL    HW323293   2.744   4.602   1.139  1.1604 -1.0158  1.3607
 5880SOL    MW423294   2.688   4.536   1.149 -0.0349 -0.2636  0.0902
 5881SOL     OW23295   5.872   3.965   3.527 -0.0002  0.3359  0.2248
 5881SOL    HW223296   5.930   4.021   3.578 -0.8657  0.9075  0.5915
 5881SOL    HW323297   5.888   3.990   3.436  1.1596 -0.3190  0.2264
 5881SOL    MW423298   5.882   3.975   3.521 -0.1578  0.0688  0.1201
 5882SOL     OW23299   0.916   0.837   4.409  0.5051 -0.4062 -0.5271
 5882SOL    HW223300   0.953   0.854   4.323  0.9717 -0.7137 -0.3929
 5882SOL    HW323301   0.878   0.921   4.436 -1.8027 -0.8570 -2.0318
 5882SOL    MW423302   0.916   0.851   4.401 -0.3061 -0.3273  0.4571
 5883SOL     OW23303   5.270   3.151   1.379 -0.0193 -0.1128  0.4674
 5883SOL    HW223304   5.211   3.162   1.454 -0.8429  1.1992 -0.3207
 5883SOL    HW323305   5.289   3.240   1.351 -0.8970 -0.5504 -1.7340
 5883SOL    MW423306   5.264   3.164   1.385  0.2993 -0.5666  0.1876
 5884SOL     OW23307   5.772   1.633   4.746 -0.1249 -0.2432 -0.5118
 5884SOL    HW223308   5.821   1.651   4.665 -2.7325  0.0167 -2.1310
 5884SOL    HW323309   5.734   1.546   4.732 -0.7019 -0.1537  0.4090
 5884SOL    MW423310   5.774   1.624   4.733  0.5458 -0.0835  0.3829
 5885SOL     OW23311   3.649   3.773   3.665  0.1896 -0.0001  0.2428
 5885SOL    HW223312   3.712   3.835   3.702 -0.6630  0.6314  0.6676
 5885SOL    HW323313   3.572   3.826   3.644 -0.1532 -0.7357 -0.3928
 5885SOL    MW423314   3.647   3.788   3.667 -0.2919  0.2145  0.5764
 5886SOL     OW23315   2.656   5.127   1.849  0.2215  0.0709  0.1930
 5886SOL    HW223316   2.589   5.066   1.818 -0.2218 -0.8170  2.6549
 5886SOL    HW323317   2.640   5.207   1.799 -2.2882 -0.3284  0.2240
 5886SOL    MW423318   2.645   5.130   1.838 -0.3907  0.2670  0.3612
 5887SOL     OW23319   5.071   2.414   1.631  0.1487  0.2287  0.0981
 5887SOL    HW223320   5.092   2.441   1.720  0.1139  3.1412 -0.6840
 5887SOL    HW323321   5.143   2.448   1.578 -0.7681  0.1915 -1.2106
 5887SOL    MW423322   5.083   2.422   1.636  0.5275 -0.0955  0.0090
 5888SOL     OW23323   2.059   1.091   0.138  0.1426  0.4046 -0.3102
 5888SOL    HW223324   2.094   1.180   0.146 -0.0001  0.5089 -0.8388
 5888SOL    HW323325   1.990   1.098   0.072  1.0870 -0.3758 -1.4204
 5888SOL    MW423326   2.055   1.104   0.131  0.1335 -0.9330 -0.2974
 5889SOL     OW23327   3.513   3.963   5.504  0.4062 -0.0081 -0.1336
 5889SOL    HW223328   3.480   3.904   5.572  2.1734 -0.7569  0.1237
 5889SOL    HW323329   3.535   4.044   5.550  2.1586 -0.7172  0.3364
 5889SOL    MW423330   3.511   3.966   5.519 -0.2993  0.5092 -0.1351
 5890SOL     OW23331   1.732   5.812   5.725 -0.1677  0.2331 -0.2558
 5890SOL    HW223332   1.754   5.903   5.745  0.2387 -0.1298  0.9895
 5890SOL    HW323333   1.813   5.775   5.689 -0.3413  0.3582 -0.7898
 5890SOL    MW423334   1.746   5.819   5.723  0.4927  0.6310 -1.2126
 5891SOL     OW23335   4.290   5.936   3.319 -0.2720  0.0633  0.3544
 5891SOL    HW223336   4.377   5.927   3.358  0.5768  0.4157 -1.3325
 5891SOL    HW323337   4.307   5.976   3.233 -2.2267  1.3794  0.5246
 5891SOL    MW423338   4.304   5.940   3.313  0.1162  0.2636 -0.6494
 5892SOL     OW23339   5.477   5.784   5.510  0.2509 -0.4274 -0.2246
 5892SOL    HW223340   5.473   5.860   5.454  1.2664  0.9778  1.5060
 5892SOL    HW323341   5.445   5.712   5.456 -0.4725  1.1538 -1.9918
 5892SOL    MW423342   5.472   5.784   5.496  0.0454 -0.2673  0.0036
 5893SOL     OW23343   3.636   3.579   4.926  0.2266  0.1436  0.3531
 5893SOL    HW223344   3.607   3.629   4.849 -0.3602  0.1018  0.5437
 5893SOL    HW323345   3.567   3.593   4.991  0.8686  0.4301  0.9841
 5893SOL    MW423346   3.623   3.588   4.924 -0.2184 -0.3285  0.5904
 5894SOL     OW23347   3.829   3.556   4.306  0.7245 -0.7788 -0.0534
 5894SOL    HW223348   3.784   3.473   4.324 -0.8010 -0.0352 -0.2109
 5894SOL    HW323349   3.869   3.544   4.220 -0.0456 -1.1535 -0.3712
 5894SOL    MW423350   3.828   3.543   4.297 -0.6886  0.2009 -0.2271
 5895SOL     OW23351   2.591   3.539   4.669 -0.0101 -0.0138 -0.7889
 5895SOL    HW223352   2.604   3.452   4.706  1.3718  0.6236  0.3286
 5895SOL    HW323353   2.555   3.590   4.742  1.3389  0.8970 -0.7301
 5895SOL    MW423354   2.588   3.534   4.683 -0.1915  0.1531  0.2413
 5896SOL     OW23355   3.160   3.311   1.250 -0.5337  0.0645  0.3850
 5896SOL    HW223356   3.153   3.258   1.329 -2.1282  1.5047  1.2934
 5896SOL    HW323357   3.212   3.258   1.189  0.3029 -1.2910  2.2040
 5896SOL    MW423358   3.166   3.297   1.252  0.4126  0.2262  0.5086
 5897SOL     OW23359   3.732   4.899   6.370 -0.0138 -0.2171 -0.6336
 5897SOL    HW223360   3.815   4.911   6.414 -0.1828  1.6308 -0.7561
 5897SOL    HW323361   3.674   4.861   6.437  0.4309  0.1842 -0.0162
 5897SOL    MW423362   3.735   4.895   6.384  0.2494 -0.1302  0.1881
 5898SOL     OW23363   3.859   4.409   1.254 -0.0641  0.2059  0.0412
 5898SOL    HW223364   3.834   4.319   1.233  0.7764  0.0790 -0.4376
 5898SOL    HW323365   3.817   4.461   1.185 -0.2632  0.1514  0.1192
 5898SOL    MW423366   3.850   4.404   1.242 -0.2454 -0.7275 -0.0466
 5899SOL     OW23367   4.360   4.593   0.417 -0.7096 -0.1040  0.2859
 5899SOL    HW223368   4.266   4.594   0.432 -0.7210 -1.6301  0.4257
 5899SOL    HW323369   4.397   4.639   0.492 -1.3353  0.5382  0.2081
 5899SOL    MW423370   4.353   4.599   0.429 -0.5294 -0.4792  0.4799
 5900SOL     OW23371   3.989   4.663   4.310 -0.3226  0.1875 -0.4555
 5900SOL    HW223372   4.019   4.575   4.290  0.5541  0.0252  1.3753
 5900SOL    HW323373   3.894   4.660   4.299 -0.4237 -1.2794  0.5343
 5900SOL    MW423374   3.980   4.651   4.306  0.6544  0.3900  0.0377
 5901SOL     OW23375   2.061   2.996   4.867 -0.2109  0.5627  1.0087
 5901SOL    HW223376   2.031   3.059   4.932  2.8937  3.1154  0.2050
 5901SOL    HW323377   2.139   2.956   4.906 -0.1482 -0.2275  0.1196
 5901SOL    MW423378   2.067   2.999   4.881 -0.0198  0.4180  0.4088
 5902SOL     OW23379   3.977   3.978   4.371  0.0817  0.3691 -0.2636
 5902SOL    HW223380   4.020   3.972   4.286 -1.1215  0.8846 -0.9424
 5902SOL    HW323381   4.026   4.044   4.419  1.3313 -0.5772 -0.2004
 5902SOL    MW423382   3.989   3.986   4.366 -0.4459  0.4749 -0.4023
 5903SOL     OW23383   5.536   6.044   2.430  0.5313  0.1921  0.6074
 5903SOL    HW223384   5.454   6.089   2.449  0.1388 -0.3105  0.1417
 5903SOL    HW323385   5.578   6.034   2.515  0.7750  1.7025  0.6866
 5903SOL    MW423386   5.531   6.048   2.444  0.7444  0.1811  0.0167
 5904SOL     OW23387   5.229   0.592   5.635  0.3620 -0.4744 -0.6289
 5904SOL    HW223388   5.322   0.572   5.626  0.8948  1.4840  0.1464
 5904SOL    HW323389   5.220   0.628   5.723 -1.2942 -1.3643 -0.3971
 5904SOL    MW423390   5.240   0.594   5.645 -0.1670  0.1432 -0.4084
 5905SOL     OW23391   3.278   5.937   5.804 -0.7299 -0.3905 -0.2047
 5905SOL    HW223392   3.268   5.841   5.798  0.0005 -0.4464 -0.7227
 5905SOL    HW323393   3.316   5.952   5.890 -2.2342 -0.4354  0.4828
 5905SOL    MW423394   3.282   5.926   5.814  0.2366  0.2653  0.1268
 5906SOL     OW23395   1.265   0.102   2.538 -0.1590  0.2741  0.8016
 5906SOL    HW223396   1.250   0.186   2.581  1.6222  0.7168  0.6373
 5906SOL    HW323397   1.329   0.121   2.469  0.0337 -1.1588  0.5422
 5906SOL    MW423398   1.272   0.115   2.534  0.1890 -0.4528 -0.6813
 5907SOL     OW23399   3.492   6.291   0.237 -0.4628  0.0067  0.1165
 5907SOL    HW223400   3.522   6.368   0.285  0.1438 -0.8265  1.1214
 5907SOL    HW323401   3.487   6.319   0.146  0.9603  0.8972  0.2800
 5907SOL    MW423402   3.495   6.305   0.232  1.2849  0.1399  0.3025
 5908SOL     OW23403   5.313   3.485   4.286  0.1888 -0.0220 -0.2615
 5908SOL    HW223404   5.336   3.569   4.247  0.0971  0.6207  1.0429
 5908SOL    HW323405   5.293   3.429   4.211 -1.4752  1.6142 -1.1203
 5908SOL    MW423406   5.313   3.489   4.271  0.4136 -0.2349  0.2483
 5909SOL     OW23407   6.004   0.366   3.595 -0.5348  0.1964  0.7575
 5909SOL    HW223408   6.058   0.325   3.662 -1.4639 -2.8232 -0.1607
 5909SOL    HW323409   5.929   0.307   3.585 -0.9312  1.0344 -2.2169
 5909SOL    MW423410   6.001   0.353   3.602 -0.3599  0.2644 -0.3390
 5910SOL     OW23411   0.901   4.616   5.668 -0.3487  0.6868  0.4123
 5910SOL    HW223412   0.841   4.673   5.716 -0.6291  1.2073 -0.5088
 5910SOL    HW323413   0.988   4.636   5.703 -0.7301 -0.3908  2.0698
 5910SOL    MW423414   0.904   4.626   5.679  0.6466  0.2123  0.2843
 5911SOL     OW23415   4.954   3.170   3.884  0.7412  0.5334  0.2129
 5911SOL    HW223416   4.974   3.158   3.977  0.7659  1.3994  0.3214
 5911SOL    HW323417   5.021   3.118   3.839 -0.5856 -1.7548  0.6855
 5911SOL    MW423418   4.966   3.162   3.890 -0.2948 -0.6579  0.0950
 5912SOL     OW23419   2.380   3.281   1.207 -0.0053 -0.0500  0.4108
 5912SOL    HW223420   2.408   3.347   1.269  0.3131  0.2959 -0.0889
 5912SOL    HW323421   2.375   3.200   1.258  0.5695  0.1620  0.8151
 5912SOL    MW423422   2.383   3.279   1.222  0.7169  0.5970 -0.1112
 5913SOL     OW23423   3.805   4.197   3.221  0.7278 -1.0017  0.2787
 5913SOL    HW223424   3.735   4.199   3.155  0.6050 -1.1189  0.4060
 5913SOL    HW323425   3.886   4.210   3.170  0.6506 -1.2705  0.0804
 5913SOL    MW423426   3.807   4.199   3.205  0.2150  0.4387 -0.4125
 5914SOL     OW23427   3.408   0.757   1.611  0.1416 -0.0101  0.1108
 5914SOL    HW223428   3.333   0.706   1.642 -0.3551  0.0065 -1.0064
 5914SOL    HW323429   3.463   0.693   1.565  0.1554  0.2121 -0.1872
 5914SOL    MW423430   3.406   0.742   1.609  0.1341  0.1415 -0.1216
 5915SOL     OW23431   2.929   2.313   3.724 -0.2678  0.5992  0.3666
 5915SOL    HW223432   2.936   2.406   3.706 -0.3341  0.6575  0.6292
 5915SOL    HW323433   2.836   2.293   3.711 -0.1931  0.4973 -0.0209
 5915SOL    MW423434   2.918   2.322   3.720 -0.0427  0.1307 -0.6836
 5916SOL     OW23435   5.141   3.116   1.636  0.7769 -0.1374  0.5300
 5916SOL    HW223436   5.097   3.040   1.675  0.9445 -0.7625 -0.4691
 5916SOL    HW323437   5.162   3.172   1.710 -0.6402 -0.3821  1.1551
 5916SOL    MW423438   5.138   3.113   1.651 -0.0041  0.4520 -0.0686
 5917SOL     OW23439   1.285   4.252   0.929 -0.0743  0.2021  0.0945
 5917SOL    HW223440   1.255   4.329   0.880 -1.9451  0.5685  1.6562
 5917SOL    HW323441   1.247   4.177   0.882  2.6710  0.0165 -2.0861
 5917SOL    MW423442   1.276   4.252   0.917 -0.2007 -0.5077  0.3849
 5918SOL     OW23443   5.041   1.470   0.588 -0.1402 -0.7816  0.1514
 5918SOL    HW223444   4.983   1.461   0.512 -0.9052  0.9702  0.4675
 5918SOL    HW323445   5.086   1.386   0.595 -0.3526 -1.1136 -1.9899
 5918SOL    MW423446   5.039   1.458   0.579  0.0044  0.5707  0.5902
 5919SOL     OW23447   3.427   2.290   4.020  0.0440  0.0558 -0.3727
 5919SOL    HW223448   3.432   2.274   3.926  1.3496 -1.1514 -0.1142
 5919SOL    HW323449   3.430   2.203   4.060 -0.1062  0.5730  0.8117
 5919SOL    MW423450   3.428   2.277   4.013 -0.0927  0.0545 -0.2070
 5920SOL     OW23451   2.964   2.818   2.340 -0.2358  0.2806  0.1617
 5920SOL    HW223452   3.009   2.877   2.400 -0.3282 -0.7189  1.2415
 5920SOL    HW323453   3.034   2.771   2.296 -0.1839  0.0672  0.4681
 5920SOL    MW423454   2.979   2.820   2.342 -0.8642 -0.4191 -0.0146
 5921SOL     OW23455   3.862   4.716   6.018 -0.1626  0.4834 -0.4588
 5921SOL    HW223456   3.772   4.727   6.048  0.3786 -0.6900  1.8263
 5921SOL    HW323457   3.858   4.647   5.952 -0.8970  0.3089 -0.2311
 5921SOL    MW423458   3.850   4.709   6.013 -0.4178  0.1368  0.3528
 5922SOL     OW23459   3.667   3.593   5.794  0.0154  0.5330 -0.0537
 5922SOL    HW223460   3.742   3.636   5.834 -0.6163  0.9391  0.7255
 5922SOL    HW323461   3.699   3.562   5.709  1.0698  0.6398  0.2939
 5922SOL    MW423462   3.681   3.594   5.788 -0.2003 -0.8149  0.1491
 5923SOL     OW23463   3.425   4.742   5.605  0.0062  0.8295  0.4195
 5923SOL    HW223464   3.342   4.785   5.626 -0.9582 -0.9792  0.5348
 5923SOL    HW323465   3.400   4.666   5.552  1.7579  1.1800 -0.9792
 5923SOL    MW423466   3.411   4.737   5.601  0.2176 -0.3072 -0.2134
 5924SOL     OW23467   6.215   4.534   2.973  0.1535  0.0991 -0.0733
 5924SOL    HW223468   6.142   4.594   2.988  0.2406  0.2812 -0.3800
 5924SOL    HW323469   6.178   4.464   2.920  0.0264 -0.1762  0.3702
 5924SOL    MW423470   6.200   4.533   2.968  0.8350 -0.2021 -0.3312
 5925SOL     OW23471   1.877   1.519   5.734  0.2589 -0.5494  0.0555
 5925SOL    HW223472   1.807   1.454   5.729 -1.4802  1.0213  2.0829
 5925SOL    HW323473   1.833   1.602   5.720  1.3254  0.6434  3.0660
 5925SOL    MW423474   1.862   1.521   5.732 -0.0934 -0.3592  0.5423
 5926SOL     OW23475   4.621   0.951   1.316 -0.7131  0.5942  0.2067
 5926SOL    HW223476   4.634   1.034   1.270  1.8374 -0.5026 -1.2745
 5926SOL    HW323477   4.549   0.908   1.269 -0.3666  0.9135 -0.6288
 5926SOL    MW423478   4.613   0.957   1.304 -0.1603 -0.9377  0.1058
 5927SOL     OW23479   6.360   0.030   0.847  0.0273 -0.1920 -0.1307
 5927SOL    HW223480   6.369  -0.015   0.763  1.2579  1.5251 -0.9985
 5927SOL    HW323481   6.335   0.119   0.823  0.1852  0.2728  1.3456
 5927SOL    MW423482   6.358   0.036   0.833 -0.2720  0.1435  0.2038
 5928SOL     OW23483   4.314   5.671   4.373 -0.0449 -0.0514  0.5300
 5928SOL    HW223484   4.262   5.749   4.354  0.3189 -0.3329 -1.9528
 5928SOL    HW323485   4.252   5.599   4.372  0.0081 -0.0941  0.0952
 5928SOL    MW423486   4.299   5.672   4.371  0.3898 -0.0566 -0.0243
 5929SOL     OW23487   0.495   3.056   3.591 -0.1586 -0.3416  0.3996
 5929SOL    HW223488   0.580   3.050   3.636  0.0788  1.8755  0.3523
 5929SOL    HW323489   0.437   2.998   3.640  0.9820 -0.6596  1.4093
 5929SOL    MW423490   0.499   3.047   3.603  0.0990  0.2328 -0.0232
 5930SOL     OW23491   1.230   0.277   1.621  0.2486 -0.1248  0.7825
 5930SOL    HW223492   1.158   0.321   1.574  1.8843  2.1058  0.1790
 5930SOL    HW323493   1.216   0.300   1.713 -0.8498 -1.3484  0.9545
 5930SOL    MW423494   1.219   0.286   1.627  0.0375 -0.0503 -0.2241
 5931SOL     OW23495   3.825   5.954   0.250 -0.2336 -0.7836 -0.0466
 5931SOL    HW223496   3.754   5.985   0.193 -0.4326 -0.2768  0.4605
 5931SOL    HW323497   3.845   6.030   0.305  1.0085 -0.7791 -0.4812
 5931SOL    MW423498   3.818   5.968   0.250 -0.1817  0.0814 -0.0014
 5932SOL     OW23499   4.191   0.714   1.011 -0.6068 -0.4398  0.1356
 5932SOL    HW223500   4.108   0.667   1.020 -0.1332 -1.2765  0.2231
 5932SOL    HW323501   4.224   0.687   0.925 -1.0357  0.9068 -0.4863
 5932SOL    MW423502   4.185   0.705   1.001 -0.3498  0.2343 -0.2620
 5933SOL     OW23503   2.911   0.172   5.491  0.3001  0.1332 -0.1178
 5933SOL    HW223504   2.974   0.140   5.555  0.4401 -0.6396 -0.6320
 5933SOL    HW323505   2.860   0.238   5.538 -0.0200 -0.8572  0.9858
 5933SOL    MW423506   2.912   0.177   5.506 -0.0945  0.2021  0.3015
 5934SOL     OW23507   1.747   0.189   5.903  0.0707  0.4177 -0.0327
 5934SOL    HW223508   1.743   0.102   5.944  2.3105  0.8028  1.1818
 5934SOL    HW323509   1.809   0.178   5.831  2.4463  1.5031  1.7239
 5934SOL    MW423510   1.755   0.176   5.899 -0.2473  0.4587  0.1758
 5935SOL     OW23511   3.772   0.706   1.606 -0.1512  0.1157 -0.3951
 5935SOL    HW223512   3.849   0.712   1.549 -0.7246 -1.3369 -1.3793
 5935SOL    HW323513   3.800   0.650   1.678 -0.2283 -0.2611 -0.6567
 5935SOL    MW423514   3.786   0.700   1.608  0.0834 -0.2936 -0.0280
 5936SOL     OW23515   5.340   0.903   0.719  0.0550 -0.6035 -0.3049
 5936SOL    HW223516   5.372   0.936   0.634  2.3069  0.5118  0.8779
 5936SOL    HW323517   5.313   0.982   0.766 -2.2634 -1.3096 -0.3131
 5936SOL    MW423518   5.341   0.918   0.714  0.1653 -0.4295  0.6309
 5937SOL     OW23519   1.071   0.181   5.113 -0.4359  1.0852  0.0409
 5937SOL    HW223520   1.143   0.129   5.149 -0.7045 -0.1676 -1.1444
 5937SOL    HW323521   1.090   0.271   5.140  0.6175  0.5310  1.2383
 5937SOL    MW423522   1.083   0.186   5.121  0.0768 -0.1548  0.3719
 5938SOL     OW23523   6.005   5.450   2.279 -0.6472  0.1449 -0.0337
 5938SOL    HW223524   6.006   5.539   2.314 -1.3308  0.6970 -1.3211
 5938SOL    HW323525   5.915   5.420   2.292  0.0101 -1.1190  2.0960
 5938SOL    MW423526   5.993   5.458   2.285 -0.0654  0.0605 -0.1973
 5939SOL     OW23527   2.259   3.191   1.699  0.7925  0.4933 -0.2241
 5939SOL    HW223528   2.303   3.106   1.701  0.8300  0.5246  0.9468
 5939SOL    HW323529   2.173   3.174   1.738  0.7384  0.9545 -0.1443
 5939SOL    MW423530   2.254   3.177   1.704  0.3385  0.2734 -0.3398
 5940SOL     OW23531   2.118   1.702   2.314  0.1467  0.1190  0.2289
 5940SOL    HW223532   2.144   1.784   2.356  0.2273  1.0882 -1.6015
 5940SOL    HW323533   2.125   1.720   2.220  1.0216 -2.2641 -0.2391
 5940SOL    MW423534   2.123   1.715   2.307  0.5066 -0.0166  0.8815
 5941SOL     OW23535   2.313   0.077   6.053 -0.2138  0.2207  0.0323
 5941SOL    HW223536   2.259   0.082   5.975  0.9861 -0.5231 -0.8751
 5941SOL    HW323537   2.261   0.026   6.116 -1.0213  0.5015 -0.3949
 5941SOL    MW423538   2.299   0.071   6.051  0.3854 -0.3612 -0.0674
 5942SOL     OW23539   2.870   2.940   0.184 -0.2421 -0.3297  0.1904
 5942SOL    HW223540   2.831   3.009   0.238  0.3586 -0.0542  0.2896
 5942SOL    HW323541   2.940   2.905   0.239  0.3827 -0.0429 -0.4059
 5942SOL    MW423542   2.874   2.945   0.199  0.0926  0.0492  0.1933
 5943SOL     OW23543   5.502   1.557   6.418  0.0688 -0.0627  0.2557
 5943SOL    HW223544   5.527   1.597   6.335 -0.0052 -2.2600 -0.9006
 5943SOL    HW323545   5.555   1.603   6.484  1.5887  0.4261 -1.2330
 5943SOL    MW423546   5.512   1.568   6.416 -0.2784 -0.3681 -0.3643
 5944SOL     OW23547   3.546   1.034   6.168 -0.5776  0.2061  0.0464
 5944SOL    HW223548   3.583   1.104   6.114 -2.4336  1.5608  0.4412
 5944SOL    HW323549   3.557   1.064   6.258  0.7175 -1.1349  0.3835
 5944SOL    MW423550   3.553   1.047   6.173 -0.3221 -0.3821  0.5678
 5945SOL     OW23551   2.423   5.846   3.143  0.4546 -0.1665 -0.0243
 5945SOL    HW223552   2.401   5.866   3.234 -0.0581  1.3243 -0.4529
 5945SOL    HW323553   2.483   5.771   3.149  1.6106  0.8247  1.6213
 5945SOL    MW423554   2.428   5.838   3.156 -0.0587 -0.0161 -0.0588
 5946SOL     OW23555   5.084   3.942   1.837  0.1617  0.0664  0.0081
 5946SOL    HW223556   5.058   3.851   1.850 -0.8051  0.4123  0.5891
 5946SOL    HW323557   5.029   3.971   1.764 -0.6504  0.6226  0.8296
 5946SOL    MW423558   5.073   3.934   1.829 -0.0847  0.4037 -0.7240
 5947SOL     OW23559   0.338   3.522   4.188 -0.1486  0.0498  0.1323
 5947SOL    HW223560   0.395   3.540   4.114  0.3771 -1.9693 -0.0241
 5947SOL    HW323561   0.292   3.604   4.204  2.4773  1.6633  0.0007
 5947SOL    MW423562   0.339   3.535   4.180 -0.4179 -0.1539  0.1107
 5948SOL     OW23563   2.670   4.031   4.886  0.2466 -0.1453  0.2221
 5948SOL    HW223564   2.727   4.103   4.859  0.9412 -0.5654  0.5115
 5948SOL    HW323565   2.689   3.961   4.823 -1.1635  0.2478 -0.6696
 5948SOL    MW423566   2.680   4.031   4.874  0.1360  0.1856 -0.1464
 5949SOL     OW23567   5.759   0.142   2.563 -0.3708 -0.2394 -0.0031
 5949SOL    HW223568   5.697   0.198   2.610  0.5471  1.4115 -0.6485
 5949SOL    HW323569   5.714   0.058   2.554 -2.2080  0.6684  0.1940
 5949SOL    MW423570   5.745   0.139   2.568 -0.0536 -0.0371 -0.3216
 5950SOL     OW23571   0.465   4.358   1.641 -0.0445 -0.3144  0.0669
 5950SOL    HW223572   0.489   4.355   1.734  1.5321  0.4104 -0.2848
 5950SOL    HW323573   0.394   4.422   1.637  0.8291  0.7305  0.6068
 5950SOL    MW423574   0.459   4.366   1.653 -0.8157 -0.6094 -0.1997
 5951SOL     OW23575   5.498   4.737   1.661  0.1400  0.0393 -0.3357
 5951SOL    HW223576   5.432   4.676   1.692  0.9329 -0.3884  0.5855
 5951SOL    HW323577   5.451   4.819   1.644 -0.4998  0.0129  1.1478
 5951SOL    MW423578   5.483   4.740   1.663 -0.1707 -0.4166 -0.3375
 5952SOL     OW23579   3.413   4.517   0.210 -0.5214 -0.1012  0.1375
 5952SOL    HW223580   3.369   4.434   0.189  0.7487 -0.9558  0.7514
 5952SOL    HW323581   3.482   4.493   0.272 -0.6999  1.5574  1.0351
 5952SOL    MW423582   3.416   4.503   0.216  0.1365 -0.2755 -0.4809
 5953SOL     OW23583   3.226   0.599   3.266  0.0867 -0.0766 -0.4219
 5953SOL    HW223584   3.144   0.549   3.260  0.3723 -0.5568 -0.4063
 5953SOL    HW323585   3.199   0.685   3.297 -0.2001 -0.8963  1.8572
 5953SOL    MW423586   3.212   0.604   3.270  0.2162 -0.5301 -0.6891
 5954SOL     OW23587   3.584   5.101   6.236 -0.5087 -0.8058  0.0213
 5954SOL    HW223588   3.660   5.066   6.284  0.6760  1.2540 -0.2340
 5954SOL    HW323589   3.580   5.193   6.262 -2.5236 -0.6936 -0.5264
 5954SOL    MW423590   3.593   5.108   6.246 -0.0423  0.0431 -0.4418
 5955SOL     OW23591   3.295   2.927   1.269  0.0963  0.4018 -0.0240
 5955SOL    HW223592   3.201   2.911   1.279  0.4738 -2.3445 -0.0100
 5955SOL    HW323593   3.302   2.986   1.194 -1.5857 -0.6912 -1.0957
 5955SOL    MW423594   3.284   2.933   1.261 -0.1156 -0.4102 -0.5174
 5956SOL     OW23595   5.032   2.737   5.518  0.3199  0.0261 -0.3623
 5956SOL    HW223596   5.008   2.736   5.426 -0.7996 -0.7941 -0.0933
 5956SOL    HW323597   5.120   2.701   5.521  0.8593  1.2159 -1.2116
 5956SOL    MW423598   5.040   2.732   5.506  0.8532 -0.5717 -0.5635
 5957SOL     OW23599   5.789   1.332   3.031  0.2670 -0.2552  0.1917
 5957SOL    HW223600   5.869   1.360   3.075  1.3391 -2.0442 -0.4941
 5957SOL    HW323601   5.788   1.380   2.949  0.7757 -0.3757  0.1111
 5957SOL    MW423602   5.799   1.342   3.026  0.5939  0.3255  0.0145
 5958SOL     OW23603   0.651   5.606   0.099  0.0061  0.6532  0.7470
 5958SOL    HW223604   0.685   5.696   0.098 -0.6866  0.9228  0.8955
 5958SOL    HW323605   0.557   5.616   0.111 -0.0026 -0.1160  1.4412
 5958SOL    MW423606   0.643   5.619   0.101  0.0288  0.5295 -0.2190
 5959SOL     OW23607   0.005   5.457   2.153  0.2884 -0.2879  0.3210
 5959SOL    HW223608   0.065   5.454   2.228  1.5941  0.9207 -0.6112
 5959SOL    HW323609  -0.061   5.522   2.179 -0.0160 -0.8280  0.9262
 5959SOL    MW423610   0.005   5.465   2.167 -0.5328 -0.1228 -0.6210
 5960SOL     OW23611   4.845   5.242   4.385  0.2984  0.0915 -0.2120
 5960SOL    HW223612   4.939   5.234   4.399  0.7118  3.1208 -0.6435
 5960SOL    HW323613   4.820   5.320   4.435 -1.7792  0.0195 -1.0418
 5960SOL    MW423614   4.854   5.251   4.394  0.3166 -0.3511  0.0018
 5961SOL     OW23615   4.076   6.121   1.895 -0.3702  1.0112  0.3945
 5961SOL    HW223616   4.071   6.158   1.983  1.3136  0.1881  0.8815
 5961SOL    HW323617   4.126   6.185   1.845  0.3879  0.5872  0.5856
 5961SOL    MW423618   4.082   6.134   1.900  0.5626  0.4887  0.1453
 5962SOL     OW23619   3.284   1.986   2.090  0.3081  0.0541  0.0763
 5962SOL    HW223620   3.265   2.075   2.062 -0.4498  0.7264  2.4428
 5962SOL    HW323621   3.268   1.987   2.185  0.0164 -2.6712  0.1414
 5962SOL    MW423622   3.280   1.997   2.099 -0.1294 -0.1847  0.3472
 5963SOL     OW23623   1.219   0.472   2.185 -0.1020 -0.5914 -0.1026
 5963SOL    HW223624   1.163   0.395   2.198  0.1691 -0.9569 -1.0522
 5963SOL    HW323625   1.254   0.463   2.097 -0.6875  1.0284 -0.5472
 5963SOL    MW423626   1.216   0.461   2.175 -0.1433 -0.3397 -0.1823
 5964SOL     OW23627   6.357   2.985   2.784  0.2985  0.2453 -1.2578
 5964SOL    HW223628   6.327   2.918   2.845 -0.5274  1.1963 -0.5791
 5964SOL    HW323629   6.362   2.940   2.700  0.2959 -0.7914 -0.7269
 5964SOL    MW423630   6.354   2.970   2.781 -0.5595  0.0524 -0.6751
 5965SOL     OW23631   3.244   2.414   4.763 -0.3922  0.2156 -0.0268
 5965SOL    HW223632   3.157   2.379   4.780 -0.1509 -0.9810 -1.1142
 5965SOL    HW323633   3.229   2.506   4.740 -1.3824 -0.0256 -0.3895
 5965SOL    MW423634   3.231   2.422   4.762 -0.5524 -0.6740  0.1444
 5966SOL     OW23635   2.095   1.088   3.933  0.2531 -0.4219 -0.4785
 5966SOL    HW223636   2.168   1.102   3.872  0.5361 -0.3621 -0.1295
 5966SOL    HW323637   2.134   1.041   4.006  0.3838  1.2569  0.5897
 5966SOL    MW423638   2.110   1.084   3.934  0.6094  0.3955  0.7488
 5967SOL     OW23639   2.673   4.312   6.364 -0.3458 -0.1072  0.3189
 5967SOL    HW223640   2.700   4.306   6.456 -0.0165 -2.1922  0.1347
 5967SOL    HW323641   2.751   4.287   6.315 -0.6279  0.6367 -0.5389
 5967SOL    MW423642   2.687   4.308   6.370 -0.3516 -0.2545 -0.1135
 5968SOL     OW23643   2.701   0.428   0.157 -0.5184 -0.2752 -0.1591
 5968SOL    HW223644   2.649   0.371   0.100  0.1815 -2.5294  1.3427
 5968SOL    HW323645   2.637   0.466   0.217 -0.8860 -0.0805 -0.6625
 5968SOL    MW423646   2.685   0.425   0.157 -0.3146 -0.0159  0.0680
 5969SOL     OW23647   2.739   3.907   6.158  0.2069 -0.1066  0.2476
 5969SOL    HW223648   2.643   3.911   6.166 -0.0847 -1.6336 -1.6349
 5969SOL    HW323649   2.759   3.814   6.157  1.5853  0.1722 -0.6257
 5969SOL    MW423650   2.729   3.895   6.159  0.1104  0.0753  0.0878
 5970SOL     OW23651   6.212   5.218   2.399 -0.2269 -0.3187  0.1808
 5970SOL    HW223652   6.124   5.213   2.435  0.4473 -0.0563  1.9597
 5970SOL    HW323653   6.209   5.291   2.337 -0.9226  0.6213  1.2832
 5970SOL    MW423654   6.200   5.227   2.395  0.1437  1.1364 -0.2791
 5971SOL     OW23655   4.415   2.868   0.642  0.2715  0.4992 -0.1961
 5971SOL    HW223656   4.391   2.805   0.710 -0.8449  0.7623 -0.3349
 5971SOL    HW323657   4.342   2.929   0.639  0.7761  1.0813 -0.9314
 5971SOL    MW423658   4.402   2.867   0.651 -0.2534  0.1241  0.2082
 5972SOL     OW23659   1.351   2.122   0.424  0.3837 -0.6935  0.4408
 5972SOL    HW223660   1.325   2.211   0.401 -0.4931 -0.7386  1.2180
 5972SOL    HW323661   1.383   2.085   0.342 -0.6315 -0.1442 -0.2279
 5972SOL    MW423662   1.352   2.129   0.410  0.1729  0.4455  0.1478
 5973SOL     OW23663   6.189   3.068   0.298 -0.4029  0.6669 -0.5459
 5973SOL    HW223664   6.195   3.028   0.385  1.8012 -2.0610 -1.7900
 5973SOL    HW323665   6.256   3.136   0.299 -0.1752  0.4415 -0.2082
 5973SOL    MW423666   6.199   3.072   0.310 -0.1319 -0.0396  0.1147
 5974SOL     OW23667   4.017   0.996   5.517 -0.0197  0.0451  0.0996
 5974SOL    HW223668   3.989   0.956   5.434  2.0162 -1.1087 -0.0942
 5974SOL    HW323669   4.086   0.938   5.549 -1.7446 -0.4004  3.4094
 5974SOL    MW423670   4.022   0.983   5.510 -0.3000  0.1330 -0.0877
 5975SOL     OW23671   0.580   3.326   5.144 -0.7878 -0.0465  0.3742
 5975SOL    HW223672   0.661   3.302   5.191  0.5170  2.6148 -0.3455
 5975SOL    HW323673   0.610   3.367   5.063 -2.9593 -1.2348 -1.1314
 5975SOL    MW423674   0.595   3.328   5.140  0.4203  0.3630  0.7040
 5976SOL     OW23675   0.968   5.089   0.494 -0.1245 -0.6131  0.1552
 5976SOL    HW223676   0.991   5.103   0.402  1.5775 -1.8576  0.3461
 5976SOL    HW323677   1.045   5.120   0.542 -1.1899  0.4707  1.2134
 5976SOL    MW423678   0.981   5.095   0.488 -0.1248 -0.0189 -0.1364
 5977SOL     OW23679   4.168   3.047   1.914  0.3524 -0.7864 -0.4759
 5977SOL    HW223680   4.129   3.125   1.955  0.6121 -1.5465  1.3441
 5977SOL    HW323681   4.094   2.986   1.904  0.4066 -0.8458 -0.5118
 5977SOL    MW423682   4.153   3.049   1.918  0.7108  0.2493 -0.2505
 5978SOL     OW23683   0.394   0.005   2.891  0.4835  0.4347 -0.5257
 5978SOL    HW223684   0.352   0.082   2.851  1.9273  1.2760 -0.4781
 5978SOL    HW323685   0.406  -0.056   2.819  1.8490  1.3996 -1.1618
 5978SOL    MW423686   0.390   0.007   2.876 -0.1238 -0.5348  0.2190
 5979SOL     OW23687   5.472   4.241   1.957 -0.5852 -0.9324  0.4219
 5979SOL    HW223688   5.463   4.334   1.935 -1.3713 -1.0939  0.0149
 5979SOL    HW323689   5.410   4.197   1.899  0.4863 -1.8180 -0.0831
 5979SOL    MW423690   5.463   4.248   1.947  0.7857  0.2854  0.3182
 5980SOL     OW23691   2.486   5.092   1.432  0.2155  0.1255  0.3925
 5980SOL    HW223692   2.439   5.174   1.415 -0.6186 -0.4251  0.0003
 5980SOL    HW323693   2.475   5.077   1.526 -0.8043 -0.2345  0.2269
 5980SOL    MW423694   2.479   5.101   1.442  0.4575 -0.1646  0.5336
 5981SOL     OW23695   0.270   5.625   0.595  0.3408  0.4964  0.3169
 5981SOL    HW223696   0.358   5.650   0.565  0.3582 -0.9278 -0.9580
 5981SOL    HW323697   0.211   5.683   0.548  0.4892 -0.3507 -0.9723
 5981SOL    MW423698   0.274   5.636   0.585  0.2656 -0.0240  0.2911
 5982SOL     OW23699   6.320   5.101   0.434  0.0361  0.1123 -0.2515
 5982SOL    HW223700   6.258   5.095   0.362  0.7141  0.8402 -0.9138
 5982SOL    HW323701   6.318   5.014   0.475  0.0714 -0.4946 -1.4996
 5982SOL    MW423702   6.311   5.089   0.430 -0.0025 -0.0001  0.3063
 5983SOL     OW23703   1.513   2.334   3.424 -0.0663 -0.3494 -0.0625
 5983SOL    HW223704   1.522   2.263   3.361 -1.1962  0.9909 -1.8306
 5983SOL    HW323705   1.422   2.328   3.454 -0.3191  0.6062 -0.5971
 5983SOL    MW423706   1.502   2.324   3.420  0.1635  0.3143  0.0770
 5984SOL     OW23707   6.228   1.768   1.590 -0.1308 -0.3229 -0.5589
 5984SOL    HW223708   6.269   1.811   1.665 -2.9816  0.7506  0.5213
 5984SOL    HW323709   6.207   1.680   1.622  1.7912 -1.1305 -1.3464
 5984SOL    MW423710   6.230   1.762   1.604  0.4322 -0.4309  0.0290
 5985SOL     OW23711   4.322   0.908   2.883 -0.1402  0.2594 -0.2136
 5985SOL    HW223712   4.236   0.889   2.921 -0.0704  1.4613  0.5902
 5985SOL    HW323713   4.383   0.897   2.957  0.3725 -0.2676 -0.7011
 5985SOL    MW423714   4.319   0.904   2.898 -0.1080  0.5293  0.0592
 5986SOL     OW23715   4.960   4.059   1.609  0.0524 -0.2082  0.1307
 5986SOL    HW223716   5.015   4.073   1.533  0.6086 -1.6333  0.2482
 5986SOL    HW323717   4.879   4.021   1.574  0.2763 -0.7879  0.2371
 5986SOL    MW423718   4.957   4.056   1.595 -0.0049  0.5135  0.3868
 5987SOL     OW23719   2.094   0.361   0.539  0.5089 -0.4345 -0.1894
 5987SOL    HW223720   2.033   0.363   0.613  1.3145 -1.5473  0.5400
 5987SOL    HW323721   2.038   0.355   0.462 -0.3279 -2.6003  0.5147
 5987SOL    MW423722   2.079   0.360   0.539 -0.4894  0.0562 -0.1820
 5988SOL     OW23723   3.205   0.034   2.158 -0.4476  0.2555  0.3492
 5988SOL    HW223724   3.239   0.097   2.093 -0.1336 -0.4829 -0.2204
 5988SOL    HW323725   3.175   0.088   2.231  0.8547  1.0063  0.3538
 5988SOL    MW423726   3.205   0.049   2.159  0.1217  0.1369  0.0582
 5989SOL     OW23727   0.279   2.476   5.198  0.1166 -0.0602 -0.3796
 5989SOL    HW223728   0.305   2.481   5.106  0.0600  0.5468 -0.3684
 5989SOL    HW323729   0.315   2.556   5.237  0.6730 -0.6168  0.2652
 5989SOL    MW423730   0.287   2.487   5.191  0.0575 -0.0444 -0.1545
 5990SOL     OW23731   2.195   0.125   5.812 -0.0078 -0.0077 -0.3444
 5990SOL    HW223732   2.241   0.105   5.731  1.4470  0.9081  0.2198
 5990SOL    HW323733   2.203   0.220   5.821  1.9708 -0.3165  2.0492
 5990SOL    MW423734   2.202   0.135   5.802  0.2995  0.5470 -0.6406
 5991SOL     OW23735   0.326   5.626   4.325 -0.0304 -0.3484  0.0221
 5991SOL    HW223736   0.345   5.717   4.300 -2.2038  0.0121 -0.5512
 5991SOL    HW323737   0.388   5.574   4.275  0.8430  0.7746 -0.1224
 5991SOL    MW423738   0.337   5.631   4.315 -0.4475  0.0057  0.1984
 5992SOL     OW23739  -0.003   5.807   4.424  0.0298 -0.1970 -0.9485
 5992SOL    HW223740   0.008   5.745   4.352  1.8332 -0.7698 -0.2313
 5992SOL    HW323741   0.086   5.834   4.447 -0.6477  1.9122 -0.5676
 5992SOL    MW423742   0.010   5.802   4.418 -0.6637  0.5544 -0.1216
 5993SOL     OW23743   2.291   4.905   5.968  0.4541  0.4486  0.2228
 5993SOL    HW223744   2.303   4.999   5.953  0.5838  0.5993  1.2411
 5993SOL    HW323745   2.209   4.884   5.923  0.2781  1.1039  0.2253
 5993SOL    MW423746   2.282   4.915   5.960 -0.1648 -0.2225 -0.0331
 5994SOL     OW23747   0.654   5.561   4.485 -0.0842  0.2327  0.0418
 5994SOL    HW223748   0.744   5.538   4.509 -0.8212  0.1866  3.2256
 5994SOL    HW323749   0.607   5.478   4.484 -0.5534  0.4702  0.8739
 5994SOL    MW423750   0.659   5.547   4.488  0.1744  0.4794 -0.0105
 5995SOL     OW23751   3.990   1.029   1.601 -0.8497 -0.1647 -0.1704
 5995SOL    HW223752   3.991   0.943   1.559 -0.2755 -1.6874  2.7213
 5995SOL    HW323753   3.899   1.058   1.595 -1.1862 -1.2710 -0.6474
 5995SOL    MW423754   3.978   1.021   1.595 -0.4723 -0.5320 -0.5988
 5996SOL     OW23755   3.957   3.194   2.855 -0.3001 -0.0964 -0.3267
 5996SOL    HW223756   3.934   3.276   2.898  0.8849  1.5549 -2.6260
 5996SOL    HW323757   3.874   3.161   2.820 -0.5786  0.9191 -0.6604
 5996SOL    MW423758   3.943   3.200   2.856  0.2941  0.0047 -0.2321
 5997SOL     OW23759   0.141   0.522   3.825  0.2901  0.2974  0.2042
 5997SOL    HW223760   0.173   0.605   3.790 -0.1452  0.2036 -0.4239
 5997SOL    HW323761   0.067   0.499   3.770  1.7489 -1.6254 -1.1076
 5997SOL    MW423762   0.136   0.530   3.813  0.4366 -0.2942  0.1351
 5998SOL     OW23763   2.043   5.732   0.986 -0.5989 -0.1024  0.0694
 5998SOL    HW223764   2.014   5.647   0.952 -0.5790 -1.1642  2.4910
 5998SOL    HW323765   1.980   5.795   0.950 -0.9410 -1.2116 -1.3461
 5998SOL    MW423766   2.031   5.729   0.977  0.1550 -0.1221 -0.7248
 5999SOL     OW23767   0.250   2.022   1.320 -0.2780  0.3933 -0.0822
 5999SOL    HW223768   0.269   1.940   1.365 -0.4767 -0.1672 -0.9985
 5999SOL    HW323769   0.270   2.004   1.228 -0.8346  1.2072 -0.3733
 5999SOL    MW423770   0.255   2.009   1.314 -0.2708  0.5585  0.6869
 6000SOL     OW23771   5.588   2.529   0.926 -0.0977  0.6163 -0.1111
 6000SOL    HW223772   5.570   2.439   0.949 -2.2528  1.3251  1.2156
 6000SOL    HW323773   5.683   2.539   0.939  0.0067 -1.1389  0.7119
 6000SOL    MW423774   5.598   2.519   0.930 -0.5320  0.2100  0.0581
 6001SOL     OW23775   3.978   2.178   0.504 -0.5884 -0.0051  0.4118
 6001SOL    HW223776   4.065   2.218   0.509  1.0121 -2.9646 -1.2742
 6001SOL    HW323777   3.955   2.181   0.411 -1.0259 -1.5995  0.4343
 6001SOL    MW423778   3.986   2.184   0.492  0.7056  0.8165 -0.4991
 6002SOL     OW23779   5.328   4.797   2.358  0.3018  0.6070 -0.4201
 6002SOL    HW223780   5.383   4.825   2.432  0.0147 -0.0531  0.0537
 6002SOL    HW323781   5.239   4.817   2.386  0.2667  1.3223 -1.0310
 6002SOL    MW423782   5.324   4.803   2.372 -0.0818 -0.5173 -0.3268
 6003SOL     OW23783   4.448   5.346   4.479  0.1047  0.0594 -0.1366
 6003SOL    HW223784   4.529   5.378   4.519  0.5594 -1.3156  0.1241
 6003SOL    HW323785   4.464   5.351   4.385 -0.3101  1.7100 -0.1362
 6003SOL    MW423786   4.461   5.351   4.472 -0.0758  0.0410  0.8137
 6004SOL     OW23787   1.882   1.844   0.525  0.0922 -0.1944 -0.0753
 6004SOL    HW223788   1.965   1.817   0.563 -0.4410 -0.1229  1.2109
 6004SOL    HW323789   1.878   1.939   0.540 -0.8595 -0.4087  1.2699
 6004SOL    MW423790   1.892   1.853   0.532  0.6392 -0.1859 -0.4163
 6005SOL     OW23791   0.252   5.262   2.050  0.2961  0.1416  0.4889
 6005SOL    HW223792   0.274   5.178   2.011 -2.0777 -0.2323 -0.1701
 6005SOL    HW323793   0.172   5.290   2.006  0.3013  2.1318  1.5961
 6005SOL    MW423794   0.244   5.255   2.039  0.5399  0.4823  0.0952
 6006SOL     OW23795   3.467   6.351   5.498  0.0180 -0.1564  0.5163
 6006SOL    HW223796   3.427   6.297   5.566  0.6951  0.4559  1.4099
 6006SOL    HW323797   3.485   6.289   5.427 -2.7988 -0.4180 -0.0899
 6006SOL    MW423798   3.464   6.335   5.497  0.4992 -0.1171  0.2007
 6007SOL     OW23799   3.195   4.809   0.033 -0.5879  0.3262 -0.1038
 6007SOL    HW223800   3.240   4.752  -0.029 -0.6155 -1.3383  1.3257
 6007SOL    HW323801   3.265   4.848   0.085 -0.6559 -0.6998  0.8012
 6007SOL    MW423802   3.210   4.807   0.031  0.1796  0.0638 -0.7006
 6008SOL     OW23803   5.277   2.257   2.816 -0.0011  0.0612  0.5372
 6008SOL    HW223804   5.297   2.184   2.758 -0.6428  0.1331  0.2135
 6008SOL    HW323805   5.187   2.241   2.845 -1.0261  1.8491 -1.3270
 6008SOL    MW423806   5.268   2.245   2.812  0.1289 -0.1478  0.0150
 6009SOL     OW23807   2.217   1.697   5.154  0.0995  0.1226  0.1794
 6009SOL    HW223808   2.207   1.646   5.234  1.6753  0.2119  0.4712
 6009SOL    HW323809   2.132   1.692   5.111 -0.7149 -0.1092  1.7492
 6009SOL    MW423810   2.204   1.690   5.159 -0.2240 -0.2283 -0.0899
 6010SOL     OW23811   5.225   0.133   1.606 -0.5948  0.4020 -0.6637
 6010SOL    HW223812   5.291   0.111   1.672 -1.0389  0.3647 -0.2289
 6010SOL    HW323813   5.270   0.120   1.522 -0.6093 -1.4774 -0.4290
 6010SOL    MW423814   5.240   0.128   1.603  0.3505 -0.2112  0.2152
 6011SOL     OW23815   3.720   2.726   5.640  0.0858  0.2901  0.2859
 6011SOL    HW223816   3.784   2.766   5.580  0.9579 -2.2396 -0.6188
 6011SOL    HW323817   3.654   2.689   5.582 -2.5160  3.0705  1.2152
 6011SOL    MW423818   3.720   2.727   5.624 -0.3355  0.9031 -0.0662
 6012SOL     OW23819   0.069   2.745   0.797 -0.2076  0.1662  0.2546
 6012SOL    HW223820   0.016   2.772   0.872  1.2081  1.0340  0.9986
 6012SOL    HW323821   0.138   2.812   0.791 -0.6929  0.5522 -2.2964
 6012SOL    MW423822   0.071   2.757   0.806  0.1443  0.0360 -0.7468
 6013SOL     OW23823   0.002   1.781   2.542  0.0521 -0.4508 -0.8049
 6013SOL    HW223824   0.017   1.698   2.497  2.0012  0.0878 -1.2568
 6013SOL    HW323825  -0.040   1.756   2.624  0.6454 -1.9060 -0.9073
 6013SOL    MW423826  -0.002   1.766   2.547  0.3916  0.3446  0.7495
 6014SOL     OW23827   2.488   0.665   1.720  0.8337  0.0217  0.4299
 6014SOL    HW223828   2.579   0.694   1.729  0.0439  1.9528  3.7344
 6014SOL    HW323829   2.460   0.646   1.809 -1.6201 -2.0602 -0.6681
 6014SOL    MW423830   2.496   0.666   1.733  0.2183  0.0959  1.0145
 6015SOL     OW23831   4.540   4.000   5.038  0.1468 -0.3862 -0.1889
 6015SOL    HW223832   4.598   4.004   4.962  0.1341 -2.1662 -0.3348
 6015SOL    HW323833   4.469   3.941   5.011 -0.4721 -0.1168  0.8036
 6015SOL    MW423834   4.538   3.992   5.024  0.3817  0.0452 -0.2046
 6016SOL     OW23835   1.415   4.063   0.060  0.1089 -0.0483 -0.2943
 6016SOL    HW223836   1.327   4.081   0.093 -0.2510 -1.6178 -0.3089
 6016SOL    HW323837   1.426   4.121  -0.015 -0.0748  1.6981  0.9823
 6016SOL    MW423838   1.405   4.073   0.055 -0.0780  0.0715  0.6409
 6017SOL     OW23839   6.204   5.606   3.648 -0.4799 -0.0752 -0.2546
 6017SOL    HW223840   6.228   5.673   3.585  0.7555 -0.5670 -0.3437
 6017SOL    HW323841   6.173   5.533   3.595  0.4317 -0.4381 -0.3211
 6017SOL    MW423842   6.203   5.605   3.633  0.5108  0.1529  0.5172
 6018SOL     OW23843   2.547   0.052   6.380  0.2745  0.3495 -0.3583
 6018SOL    HW223844   2.617   0.031   6.442 -0.1099 -0.6524 -0.2324
 6018SOL    HW323845   2.536   0.146   6.386 -0.5744  0.1656  2.0071
 6018SOL    MW423846   2.555   0.061   6.389  0.2079 -0.2323 -0.0609
 6019SOL     OW23847   2.343   6.136   0.176 -0.2708  0.3803  0.2345
 6019SOL    HW223848   2.332   6.041   0.182 -0.0637  0.3349 -0.0792
 6019SOL    HW323849   2.366   6.152   0.084 -0.0993  0.7111  0.3317
 6019SOL    MW423850   2.345   6.126   0.165  0.2074 -0.2182  0.1685
 6020SOL     OW23851   3.252   0.767   5.944  0.4902 -0.5677 -0.4887
 6020SOL    HW223852   3.329   0.717   5.969  0.1107 -0.4583  1.0023
 6020SOL    HW323853   3.266   0.854   5.981 -1.0380 -1.0039  1.2972
 6020SOL    MW423854   3.264   0.772   5.952 -0.6363  0.1682 -0.2889
 6021SOL     OW23855   3.385   4.946   5.423  0.2394 -0.7734  0.7145
 6021SOL    HW223856   3.381   5.018   5.486 -5.4420 -0.5588  0.6080
 6021SOL    HW323857   3.407   4.869   5.476 -1.1479 -0.0660  2.4209
 6021SOL    MW423858   3.388   4.945   5.438 -0.2373 -0.2300 -0.0136
 6022SOL     OW23859   5.883   4.799   6.107  0.1687  0.1759 -0.3532
 6022SOL    HW223860   5.830   4.729   6.146 -0.8902  1.2022  0.1249
 6022SOL    HW323861   5.927   4.839   6.182 -0.1020  0.7215 -0.4819
 6022SOL    MW423862   5.882   4.795   6.122  0.0611  0.0310 -0.3293
 6023SOL     OW23863   2.494   4.808   5.414  0.5129  0.0576  0.4900
 6023SOL    HW223864   2.404   4.840   5.413 -0.1321 -1.6280 -1.6814
 6023SOL    HW323865   2.493   4.735   5.476 -0.1622 -1.2364 -0.9819
 6023SOL    MW423866   2.482   4.803   5.422 -0.3871 -0.7265 -0.7811
 6024SOL     OW23867   1.199   2.677   4.175 -0.1003  0.1454 -0.3337
 6024SOL    HW223868   1.175   2.602   4.121  1.5758 -1.1708  0.6385
 6024SOL    HW323869   1.290   2.695   4.151  0.8945 -0.8272  2.3073
 6024SOL    MW423870   1.208   2.669   4.165  0.1299  0.9701  0.3015
 6025SOL     OW23871   4.090   2.056   2.234 -0.0064  0.3228  0.1135
 6025SOL    HW223872   4.060   1.981   2.286 -0.6100  0.0587 -0.6066
 6025SOL    HW323873   4.037   2.053   2.154  2.5798 -0.7376 -1.6904
 6025SOL    MW423874   4.079   2.046   2.231  0.3331  0.3359 -0.6937
 6026SOL     OW23875   3.999   0.649   5.988  0.1319  0.2751 -0.4234
 6026SOL    HW223876   3.987   0.557   5.967  1.1130  0.0874 -0.2316
 6026SOL    HW323877   4.089   0.654   6.023 -0.8304  0.8096  2.2181
 6026SOL    MW423878   4.010   0.638   5.990  0.6914 -0.1225 -0.8068
 6027SOL     OW23879   4.832   5.037   2.629  0.3582  0.0163  0.4269
 6027SOL    HW223880   4.800   5.127   2.621 -0.1874 -0.2008  0.1294
 6027SOL    HW323881   4.753   4.983   2.628  0.7478 -0.5486 -0.5834
 6027SOL    MW423882   4.818   5.042   2.628  0.4959  0.1436 -0.5401
 6028SOL     OW23883   4.713   1.109   0.705 -0.1120  0.2148  0.3299
 6028SOL    HW223884   4.673   1.195   0.689 -0.0959  0.7104  2.5986
 6028SOL    HW323885   4.804   1.130   0.727  0.3538 -0.5643 -0.7698
 6028SOL    MW423886   4.720   1.123   0.706 -0.2610 -0.1272 -0.0151
 6029SOL     OW23887   5.233   2.732   2.299 -0.1632 -0.1033 -0.4897
 6029SOL    HW223888   5.297   2.767   2.362  0.1479 -2.7671  0.8342
 6029SOL    HW323889   5.279   2.732   2.215  1.3043 -1.0715  0.2678
 6029SOL    MW423890   5.248   2.736   2.296 -0.1905 -0.4783  0.1856
 6030SOL     OW23891   1.290   1.882   2.341 -0.3316  0.2848 -0.0687
 6030SOL    HW223892   1.256   1.816   2.400 -0.0942  0.3561  0.1498
 6030SOL    HW323893   1.355   1.836   2.288 -0.5172  0.2298 -0.2505
 6030SOL    MW423894   1.294   1.867   2.342 -0.5641  0.2169 -0.0520
 6031SOL     OW23895   0.145   4.667   0.946 -0.1575  0.1990 -0.0441
 6031SOL    HW223896   0.101   4.752   0.956  0.3850  0.3488  1.2201
 6031SOL    HW323897   0.147   4.630   1.034  1.2360 -0.2945 -0.2491
 6031SOL    MW423898   0.140   4.673   0.959 -0.1848  0.6292  0.0909
 6032SOL     OW23899   1.194   3.439   2.773  0.0215 -0.0615 -0.1198
 6032SOL    HW223900   1.262   3.392   2.725 -0.3469  0.5550 -1.2985
 6032SOL    HW323901   1.236   3.518   2.805 -0.0003  0.0407 -0.3462
 6032SOL    MW423902   1.208   3.443   2.771  0.7396 -0.0385 -0.8183
 6033SOL     OW23903   1.103   5.656   1.013  0.4048  0.5667  0.6528
 6033SOL    HW223904   1.025   5.711   1.013  1.1282  1.6307  0.6410
 6033SOL    HW323905   1.102   5.611   1.097 -0.9318 -0.5219  0.1034
 6033SOL    MW423906   1.093   5.657   1.024  0.0533  0.0719 -0.4273
 6034SOL     OW23907   0.123   4.272   1.454  0.0528  0.4302 -0.0198
 6034SOL    HW223908   0.058   4.276   1.384  0.5513  0.7213 -0.4776
 6034SOL    HW323909   0.207   4.267   1.408  0.4093  1.0215  0.5509
 6034SOL    MW423910   0.126   4.272   1.438  0.2500 -0.2377  0.2361
 6035SOL     OW23911   6.237   5.745   3.425 -0.3134 -0.3969  0.2083
 6035SOL    HW223912   6.235   5.667   3.370 -1.1193 -0.5830  0.4737
 6035SOL    HW323913   6.325   5.780   3.416  1.0520 -2.9338  2.3211
 6035SOL    MW423914   6.248   5.739   3.417 -0.1749 -0.0774  0.1004
 6036SOL     OW23915   4.868   2.489   1.243 -0.1784  0.6657 -0.2883
 6036SOL    HW223916   4.930   2.549   1.200  0.7033  0.6751  0.9249
 6036SOL    HW323917   4.807   2.547   1.289  0.3038  0.6648  0.3776
 6036SOL    MW423918   4.868   2.505   1.244  0.5317  0.9421  0.3403
 6037SOL     OW23919   0.320   4.736   1.334 -0.2327 -0.0485  0.1513
 6037SOL    HW223920   0.323   4.791   1.255  1.7972  0.4132  0.4833
 6037SOL    HW323921   0.283   4.653   1.304 -0.6968  0.5504 -1.0005
 6037SOL    MW423922   0.316   4.732   1.319  0.2520 -0.3128  0.0646
 6038SOL     OW23923   5.910   1.155   5.894  0.0042 -0.1609  0.0818
 6038SOL    HW223924   5.900   1.060   5.888  1.8384 -0.3579 -0.5137
 6038SOL    HW323925   5.864   1.189   5.818 -0.2563 -0.6000  0.0377
 6038SOL    MW423926   5.902   1.147   5.883 -0.1299  0.0786 -0.1100
 6039SOL     OW23927   5.074   0.353   5.617 -0.1153 -0.4155 -0.1624
 6039SOL    HW223928   5.122   0.435   5.622 -2.7396  1.2201 -0.3710
 6039SOL    HW323929   5.076   0.330   5.524 -1.6790  0.9204 -0.5588
 6039SOL    MW423930   5.081   0.361   5.605 -0.0883 -0.1745 -0.8008
 6040SOL     OW23931   3.309   5.941   0.972 -0.4231 -0.2352  0.3203
 6040SOL    HW223932   3.221   5.978   0.980 -0.6920 -0.2667 -1.8639
 6040SOL    HW323933   3.318   5.884   1.048 -2.5394 -0.6974  0.2844
 6040SOL    MW423934   3.298   5.939   0.983  0.0349 -0.0447  0.0404
 6041SOL     OW23935   2.068   3.784   1.837 -0.0774 -0.4005 -0.0787
 6041SOL    HW223936   2.121   3.844   1.889  0.4176  0.3822 -1.4291
 6041SOL    HW323937   2.054   3.708   1.894 -1.2628  1.2177  1.9110
 6041SOL    MW423938   2.073   3.782   1.851 -0.0631 -0.3565 -0.3897
 6042SOL     OW23939   4.763   2.143   5.648 -0.1392  0.0597  0.0188
 6042SOL    HW223940   4.804   2.208   5.591  0.8987  1.4224  2.1862
 6042SOL    HW323941   4.790   2.059   5.611  2.0017  0.8965 -0.4741
 6042SOL    MW423942   4.772   2.140   5.635  0.0681  0.0441  0.0735
 6043SOL     OW23943   3.604   0.060   4.374  0.5129 -0.4475  0.3784
 6043SOL    HW223944   3.566   0.100   4.452  1.2555 -1.4508  1.2835
 6043SOL    HW323945   3.633   0.134   4.321 -1.0969  0.2851  0.4619
 6043SOL    MW423946   3.603   0.075   4.378 -0.6092 -0.1938  0.0728
 6044SOL     OW23947   5.537   2.124   3.997 -0.1900 -0.0472 -0.3792
 6044SOL    HW223948   5.511   2.153   3.910 -0.1253 -1.1989 -0.7897
 6044SOL    HW323949   5.549   2.030   3.989 -0.1184 -0.1608  0.8615
 6044SOL    MW423950   5.535   2.116   3.985  0.1533  0.5905 -0.3180
 6045SOL     OW23951   6.171   3.045   3.411  0.0428 -0.4090  0.7027
 6045SOL    HW223952   6.085   3.086   3.410  0.6831  0.9930 -0.6743
 6045SOL    HW323953   6.218   3.089   3.482 -0.1676 -0.7476  1.0559
 6045SOL    MW423954   6.166   3.056   3.420  0.2908 -0.8266 -0.4127
 6046SOL     OW23955   3.140   4.786   3.931  0.0771 -0.3539 -0.3728
 6046SOL    HW223956   3.114   4.780   3.839 -2.5200  0.0247  0.2592
 6046SOL    HW323957   3.133   4.879   3.952 -1.1977 -0.6547  0.6555
 6046SOL    MW423958   3.136   4.797   3.921 -0.0119  0.4760  0.1407
 6047SOL     OW23959   2.222   4.116   1.810 -0.6109  0.1087  0.5626
 6047SOL    HW223960   2.228   4.043   1.749  0.7982  0.0032  0.7784
 6047SOL    HW323961   2.129   4.124   1.829 -0.8346 -1.4594  0.3151
 6047SOL    MW423962   2.211   4.107   1.805  0.2893 -0.2844 -0.0882
 6048SOL     OW23963   2.307   1.102   1.577 -0.7422  0.1416  0.0765
 6048SOL    HW223964   2.369   1.067   1.514  0.1078  0.8670  0.4855
 6048SOL    HW323965   2.301   1.035   1.645  0.7945  0.7125  0.8041
 6048SOL    MW423966   2.314   1.089   1.578 -0.5289  0.0139 -0.1685
 6049SOL     OW23967   3.732   3.333   1.498  0.3583 -0.3948  0.2049
 6049SOL    HW223968   3.721   3.246   1.460 -2.2456 -0.5978  1.2351
 6049SOL    HW323969   3.673   3.389   1.449  0.1805  0.2516  1.1222
 6049SOL    MW423970   3.723   3.329   1.487  0.3252 -0.1617  0.0417
 6050SOL     OW23971   2.174   4.682   4.973  0.5960  0.4190 -0.1696
 6050SOL    HW223972   2.079   4.684   4.988  0.6515 -0.5383  0.4023
 6050SOL    HW323973   2.211   4.731   5.046  0.6538 -1.2128  0.9606
 6050SOL    MW423974   2.166   4.689   4.985  0.5637 -0.6671  0.6939
 6051SOL     OW23975   1.695   3.668   3.134  0.0534 -0.4832  0.0265
 6051SOL    HW223976   1.672   3.728   3.205 -1.0922  1.3290 -1.7408
 6051SOL    HW323977   1.636   3.593   3.146 -2.2477  1.1119 -0.5788
 6051SOL    MW423978   1.684   3.666   3.145 -0.2054 -0.2415  0.3517
 6052SOL     OW23979   0.528   0.755   4.382 -0.2665 -0.4292 -0.1438
 6052SOL    HW223980   0.470   0.831   4.383  0.6043  0.2631 -0.5529
 6052SOL    HW323981   0.470   0.681   4.366 -1.2804 -0.0051  1.3423
 6052SOL    MW423982   0.513   0.756   4.380 -0.1580 -0.2261  0.7582
 6053SOL     OW23983   1.214   4.975   2.063 -0.0085  0.7186 -0.0106
 6053SOL    HW223984   1.196   4.935   1.978 -0.6084 -0.2178  0.5433
 6053SOL    HW323985   1.172   5.061   2.059 -0.5699  0.4257 -0.4378
 6053SOL    MW423986   1.206   4.981   2.051 -0.3629 -0.1412 -0.1701
 6054SOL     OW23987   6.232   0.524   3.267 -0.2127  0.1758 -0.6435
 6054SOL    HW223988   6.179   0.570   3.332  1.1586 -1.2279  1.6085
 6054SOL    HW323989   6.274   0.593   3.217  0.2424  1.3902  1.3018
 6054SOL    MW423990   6.230   0.539   3.269 -0.1329  0.5870 -0.0524
 6055SOL     OW23991   4.340   0.764   3.826  0.2944 -0.0522 -0.1383
 6055SOL    HW223992   4.409   0.778   3.890  1.0086  0.7324 -1.0481
 6055SOL    HW323993   4.372   0.806   3.746 -1.6906  1.3256 -0.2940
 6055SOL    MW423994   4.353   0.772   3.824 -0.2347  0.3920 -0.2405
 6056SOL     OW23995   5.971   1.424   0.513  0.3285  0.3791  0.4033
 6056SOL    HW223996   6.065   1.440   0.514  0.2208  1.1314 -0.1388
 6056SOL    HW323997   5.945   1.443   0.423 -0.4441  0.8879  0.7209
 6056SOL    MW423998   5.980   1.429   0.501  0.3154  0.6293 -0.1580
 6057SOL     OW23999   2.359   5.445   2.866  0.7804  0.0532  0.3935
 6057SOL    HW224000   2.288   5.430   2.928 -0.3266  0.3627 -0.7694
 6057SOL    HW324001   2.329   5.517   2.811  0.6599 -1.6764 -2.0060
 6057SOL    MW424002   2.346   5.452   2.867  0.0196  0.6764 -0.3083
 6058SOL     OW24003   1.999   1.344   3.892 -0.2921  0.7099  0.1518
 6058SOL    HW224004   1.998   1.388   3.977  3.6374  1.0982  0.1610
 6058SOL    HW324005   2.063   1.273   3.902 -1.6793 -0.9540 -1.7726
 6058SOL    MW424006   2.007   1.340   3.904 -0.6141  0.0023 -0.5416
 6059SOL     OW24007   1.267   3.260   2.954  0.3893 -0.0279  0.0077
 6059SOL    HW224008   1.233   3.339   2.912  1.9141  2.4588  3.0757
 6059SOL    HW324009   1.192   3.227   3.004 -0.2139 -0.5179 -1.1683
 6059SOL    MW424010   1.252   3.266   2.955 -0.0213 -0.0450  0.4196
 6060SOL     OW24011   2.664   0.806   3.652 -0.1771 -0.5453  0.1635
 6060SOL    HW224012   2.753   0.775   3.666  0.6406  1.3538 -0.5848
 6060SOL    HW324013   2.645   0.784   3.561 -0.6458 -1.2696  0.4211
 6060SOL    MW424014   2.673   0.799   3.642  0.5981  0.2327 -0.4545
 6061SOL     OW24015   5.966   4.493   2.481 -0.0572  0.4726 -0.1605
 6061SOL    HW224016   5.986   4.438   2.405 -0.8695 -1.4706  0.9670
 6061SOL    HW324017   6.048   4.495   2.531 -0.4752 -1.2397  0.6707
 6061SOL    MW424018   5.980   4.486   2.477 -0.5792 -0.4767 -0.8461
 6062SOL     OW24019   6.398   1.803   1.800  0.0896 -0.5356  0.0735
 6062SOL    HW224020   6.332   1.759   1.854  0.8756 -1.3658  0.3726
 6062SOL    HW324021   6.440   1.733   1.752 -0.6537  0.1955 -1.7275
 6062SOL    MW424022   6.395   1.788   1.801 -0.2099  0.1237 -0.5189
 6063SOL     OW24023   0.105   2.714   4.554  0.2585  0.6193  0.7211
 6063SOL    HW224024   0.109   2.765   4.473  1.5535  0.5799  0.7297
 6063SOL    HW324025   0.074   2.628   4.527 -1.1339  1.1537  0.5749
 6063SOL    MW424026   0.102   2.709   4.540 -0.1152 -0.3113 -0.0367
 6064SOL     OW24027   2.859   2.277   3.236 -0.1001 -0.5773  0.0560
 6064SOL    HW224028   2.815   2.193   3.247 -0.1037 -0.4431  1.2157
 6064SOL    HW324029   2.920   2.282   3.309  1.7415 -0.6713 -1.4127
 6064SOL    MW424030   2.861   2.266   3.247  0.5146  0.0144 -0.5473
 6065SOL     OW24031   1.184   4.668   5.802  0.2565  0.6880 -0.0314
 6065SOL    HW224032   1.176   4.613   5.880  0.6119  1.0256  0.2509
 6065SOL    HW324033   1.259   4.632   5.755 -0.6072 -0.1744 -0.7685
 6065SOL    MW424034   1.193   4.656   5.806 -0.2217  0.2996  0.0031
 6066SOL     OW24035   4.372   5.265   1.282 -0.3195 -0.2646  0.0426
 6066SOL    HW224036   4.368   5.330   1.211  0.6242  0.5215  0.6902
 6066SOL    HW324037   4.462   5.268   1.313 -0.4856 -1.2726  0.6702
 6066SOL    MW424038   4.383   5.274   1.277 -0.4996  0.4162  0.5305
 6067SOL     OW24039   1.005   0.809   5.549  0.3588 -0.7929 -0.1557
 6067SOL    HW224040   0.997   0.876   5.482 -0.7302 -0.9768 -0.2229
 6067SOL    HW324041   1.100   0.793   5.556  0.7620  1.5882  0.7213
 6067SOL    MW424042   1.017   0.816   5.541  0.2391 -0.2250 -0.6244
 6068SOL     OW24043   1.252   5.724   3.137  0.0389 -0.6939  0.0926
 6068SOL    HW224044   1.251   5.637   3.178  3.4924 -0.7970  0.2931
 6068SOL    HW324045   1.268   5.784   3.210  1.5347 -0.3570 -0.4866
 6068SOL    MW424046   1.254   5.721   3.152 -0.3043  0.0896  0.3895
 6069SOL     OW24047   1.411   4.279   5.997  0.1027 -0.3359  0.1772
 6069SOL    HW224048   1.424   4.184   5.999  2.1085 -0.1326 -1.0807
 6069SOL    HW324049   1.413   4.302   5.904  2.7994  1.2670  0.5376
 6069SOL    MW424050   1.413   4.269   5.985  0.1068 -0.2667  0.6814
 6070SOL     OW24051   2.507   1.194   2.617 -0.0392 -0.9510 -0.2035
 6070SOL    HW224052   2.419   1.223   2.593  0.1748 -0.5951 -0.5583
 6070SOL    HW324053   2.498   1.099   2.630 -1.0065 -0.6020  2.1755
 6070SOL    MW424054   2.494   1.185   2.616 -0.6752 -0.3824  0.1244
 6071SOL     OW24055   4.448   5.543   2.125 -0.0076  0.2910 -0.5249
 6071SOL    HW224056   4.496   5.570   2.204 -0.9572  2.7508 -0.6755
 6071SOL    HW324057   4.516   5.529   2.060  0.6759  2.2996 -0.3466
 6071SOL    MW424058   4.464   5.545   2.127  0.5773 -0.0342 -0.7537
 6072SOL     OW24059   2.900   5.910   0.365 -0.0762 -0.5423 -0.4510
 6072SOL    HW224060   2.862   5.945   0.284  1.4941 -0.4970 -1.2157
 6072SOL    HW324061   2.947   5.984   0.403  2.1109 -1.3794 -1.3568
 6072SOL    MW424062   2.901   5.924   0.359  0.0671  0.0645  0.2009
 6073SOL     OW24063   5.671   6.326   2.465  0.4127  0.2758 -0.0870
 6073SOL    HW224064   5.656   6.343   2.372  1.0779 -1.0924 -0.4680
 6073SOL    HW324065   5.589   6.289   2.497  0.2806  0.4718 -0.1985
 6073SOL    MW424066   5.658   6.324   2.457 -0.1368  0.3693  0.0097
 6074SOL     OW24067   2.025   5.436   1.062  0.6592 -0.2467 -0.0153
 6074SOL    HW224068   2.024   5.422   0.967  1.1702  0.9415 -0.2152
 6074SOL    HW324069   1.935   5.459   1.083  0.5021 -0.6973 -0.1721
 6074SOL    MW424070   2.013   5.437   1.052  0.1587 -0.0086 -0.3496
 6075SOL     OW24071   5.149   1.889   5.786 -0.5067  0.3527  0.3051
 6075SOL    HW224072   5.241   1.911   5.773  0.6003 -2.4729  2.4240
 6075SOL    HW324073   5.128   1.830   5.713  0.0308 -0.6182  0.9117
 6075SOL    MW424074   5.158   1.884   5.774 -0.1021  0.5209 -0.3613
 6076SOL     OW24075   0.487   0.686   4.914 -0.0100  0.2662  0.2449
 6076SOL    HW224076   0.463   0.646   4.997 -2.2860 -0.3721 -0.6547
 6076SOL    HW324077   0.424   0.757   4.902  0.2695  0.3305 -0.9478
 6076SOL    MW424078   0.476   0.690   4.923  0.2678 -0.3238 -0.3949
 6077SOL     OW24079   4.102   3.604   4.379 -0.4878 -0.1624 -0.2125
 6077SOL    HW224080   4.014   3.567   4.369 -0.6000 -0.6429  1.9292
 6077SOL    HW324081   4.091   3.676   4.441  0.4574  0.6173 -0.9104
 6077SOL    MW424082   4.089   3.608   4.386  0.1079 -0.0374 -0.2432
 6078SOL     OW24083   1.263   5.396   4.183  0.0008 -0.3938  0.1649
 6078SOL    HW224084   1.238   5.368   4.095 -0.2938  0.2083  0.0507
 6078SOL    HW324085   1.189   5.449   4.214  0.7166  0.6399  0.1824
 6078SOL    MW424086   1.250   5.399   4.175 -0.3367 -0.3363 -0.4228
 6079SOL     OW24087   3.064   3.617   3.447 -0.1566 -0.2015 -0.0305
 6079SOL    HW224088   3.106   3.669   3.379 -0.7616  1.4880  0.8395
 6079SOL    HW324089   3.136   3.590   3.505 -0.0701  1.5456  0.7150
 6079SOL    MW424090   3.079   3.620   3.446  0.1450  0.8565 -0.4000
 6080SOL     OW24091   5.540   5.308   6.056  0.2126 -0.3265 -0.8627
 6080SOL    HW224092   5.555   5.400   6.080 -1.7133 -0.0054 -0.7284
 6080SOL    HW324093   5.628   5.269   6.055  1.0372  1.4086 -0.5280
 6080SOL    MW424094   5.554   5.315   6.059  0.0326 -0.6643  0.2504
 6081SOL     OW24095   3.487   3.081   4.590  0.0519  0.1103 -0.7673
 6081SOL    HW224096   3.512   3.144   4.659  2.9071 -1.7999  0.1221
 6081SOL    HW324097   3.569   3.060   4.546 -0.8629 -2.5965 -1.3562
 6081SOL    MW424098   3.501   3.087   4.594  0.0252 -0.1410 -0.1148
 6082SOL     OW24099   2.459   3.049   0.666  0.0765 -0.5031  0.0194
 6082SOL    HW224100   2.508   3.092   0.596  0.7199  0.6332  1.1143
 6082SOL    HW324101   2.524   2.998   0.713  0.1858  0.6722  1.2192
 6082SOL    MW424102   2.474   3.048   0.663  0.2330  0.2559  0.4573
 6083SOL     OW24103   3.318   0.355   6.433 -0.0832 -0.1141  0.2429
 6083SOL    HW224104   3.284   0.319   6.351  1.6784 -1.2242 -0.0525
 6083SOL    HW324105   3.268   0.436   6.446 -0.4765  0.0383 -1.8553
 6083SOL    MW424106   3.307   0.361   6.424 -0.3281 -0.6306 -0.5397
 6084SOL     OW24107   1.508   5.789   2.713 -0.0524 -0.5032 -0.1350
 6084SOL    HW224108   1.544   5.877   2.698  0.6656 -0.3950  1.8697
 6084SOL    HW324109   1.548   5.735   2.645  0.4010  0.5020 -0.6984
 6084SOL    MW424110   1.518   5.793   2.702 -0.2331 -0.2888 -0.0506
 6085SOL     OW24111   1.841   3.073   5.661  0.2724 -0.2871 -0.2493
 6085SOL    HW224112   1.820   3.101   5.571 -0.3071  0.0558 -0.0133
 6085SOL    HW324113   1.757   3.071   5.705  0.5729 -0.3441  0.3226
 6085SOL    MW424114   1.827   3.077   5.655  0.4794  0.6273  0.3222
 6086SOL     OW24115   2.271   2.784   0.821  0.1450 -0.3196 -0.5457
 6086SOL    HW224116   2.321   2.864   0.833  0.5870 -0.2860 -2.3587
 6086SOL    HW324117   2.179   2.811   0.829  0.1889  0.7834 -2.9900
 6086SOL    MW424118   2.265   2.798   0.824 -0.2621 -0.2667 -0.0608
 6087SOL     OW24119   6.224   4.330   4.677  0.1523 -0.0936  0.0341
 6087SOL    HW224120   6.234   4.298   4.587 -1.6144  0.4742 -0.4098
 6087SOL    HW324121   6.158   4.273   4.716  2.0265 -1.3464  1.5469
 6087SOL    MW424122   6.216   4.319   4.670 -0.1788 -0.2983  0.4080
 6088SOL     OW24123   2.227   4.630   4.318  0.0563  0.0088  0.2400
 6088SOL    HW224124   2.283   4.655   4.391 -1.0768  2.0147  0.5048
 6088SOL    HW324125   2.141   4.614   4.358 -1.0610  2.8900 -0.7186
 6088SOL    MW424126   2.223   4.631   4.333 -0.0748 -0.5580 -0.2830
 6089SOL     OW24127   1.295   5.631   1.763 -0.0311 -0.0622  0.3021
 6089SOL    HW224128   1.336   5.574   1.698  0.8398  2.4844 -1.5346
 6089SOL    HW324129   1.213   5.660   1.722 -0.8632 -0.5835  1.5452
 6089SOL    MW424130   1.290   5.628   1.749 -0.0254 -0.7136  0.5850
 6090SOL     OW24131   2.023   1.464   4.162 -0.0352  0.0703  0.2257
 6090SOL    HW224132   2.057   1.404   4.228  0.2536  1.3094  1.2300
 6090SOL    HW324133   1.977   1.532   4.212  1.2574  1.7146 -0.7294
 6090SOL    MW424134   2.021   1.465   4.177  0.2350 -0.3340  0.5395
 6091SOL     OW24135   4.708   0.744   2.841 -0.5914 -0.0750  0.4091
 6091SOL    HW224136   4.778   0.726   2.903  0.1957 -0.5827 -0.6051
 6091SOL    HW324137   4.694   0.839   2.848 -1.0853 -0.2385  1.9261
 6091SOL    MW424138   4.716   0.754   2.850 -0.2595 -0.1919 -0.0067
 6092SOL     OW24139   6.135   0.225   5.927  0.6648  0.2379 -0.1117
 6092SOL    HW224140   6.120   0.249   5.836 -0.1545  2.9134  0.6529
 6092SOL    HW324141   6.214   0.273   5.952  0.7011 -0.2155  0.6856
 6092SOL    MW424142   6.143   0.235   5.918  0.3778 -0.6356  0.1809
 6093SOL     OW24143   6.367   1.693   4.237 -0.3314  0.0483  0.4799
 6093SOL    HW224144   6.421   1.754   4.286  0.0763  0.4388 -0.4205
 6093SOL    HW324145   6.386   1.713   4.145 -0.3678 -1.2734  0.1627
 6093SOL    MW424146   6.377   1.703   4.231  0.0384 -0.4499 -0.5209
 6094SOL     OW24147   4.569   5.156   3.485 -0.7647  0.2305 -0.1866
 6094SOL    HW224148   4.598   5.147   3.395  1.2405 -0.1306  0.4403
 6094SOL    HW324149   4.572   5.250   3.502 -0.0786  0.2104 -0.1815
 6094SOL    MW424150   4.573   5.167   3.476  0.7888 -0.2630 -0.2731
 6095SOL     OW24151   6.358   0.676   3.057  0.0642 -0.0395 -0.0072
 6095SOL    HW224152   6.421   0.608   3.031  0.1242 -0.9128  2.1829
 6095SOL    HW324153   6.379   0.751   3.001  2.0977 -0.7952 -0.3407
 6095SOL    MW424154   6.369   0.677   3.046 -0.0424 -0.0970  0.2594
 6096SOL     OW24155   5.770   0.815   4.124 -0.0420  0.6480  0.2956
 6096SOL    HW224156   5.825   0.815   4.045  1.9087 -2.4105  1.4985
 6096SOL    HW324157   5.705   0.747   4.107 -0.0669  0.4857  1.0407
 6096SOL    MW424158   5.768   0.806   4.111  0.3936 -0.3708  0.5333
 6097SOL     OW24159   2.415   1.555   2.541  0.1715  0.2861  0.7317
 6097SOL    HW224160   2.456   1.510   2.614  1.9414  0.3124 -0.2035
 6097SOL    HW324161   2.464   1.637   2.533 -1.2270  1.1472  0.6884
 6097SOL    MW424162   2.427   1.560   2.550  0.1108  0.2255 -0.0612
 6098SOL     OW24163   1.835   4.343   4.632  0.2980 -0.2038  0.7079
 6098SOL    HW224164   1.804   4.413   4.688 -0.7747 -1.5433  1.8658
 6098SOL    HW324165   1.843   4.383   4.545 -3.1760  0.6901  0.6534
 6098SOL    MW424166   1.832   4.357   4.628  0.2484  0.3273 -0.2009
 6099SOL     OW24167   3.787   1.485   4.961  0.5653 -0.3064 -0.3606
 6099SOL    HW224168   3.716   1.549   4.956  0.0613 -0.7243  0.8939
 6099SOL    HW324169   3.842   1.516   5.033  0.6508 -0.9373 -0.1456
 6099SOL    MW424170   3.785   1.497   4.970 -0.1334 -0.2353 -0.2277
 6100SOL     OW24171   3.414   0.172   4.082  0.3799  0.4386 -0.5858
 6100SOL    HW224172   3.324   0.154   4.108  0.0408  1.5882 -0.9171
 6100SOL    HW324173   3.434   0.257   4.122  0.4858  1.3386 -2.4764
 6100SOL    MW424174   3.405   0.181   4.091 -0.3731  0.4412  0.0413
 6101SOL     OW24175   2.657   0.822   0.742  0.6561  0.3784 -0.3590
 6101SOL    HW224176   2.721   0.751   0.752  0.7569  0.2214 -1.9396
 6101SOL    HW324177   2.641   0.827   0.648 -2.0737  0.0467  0.0046
 6101SOL    MW424178   2.663   0.813   0.731 -0.8016 -0.1874 -0.3010
 6102SOL     OW24179   0.914   4.473   1.872  0.2968  0.1814 -0.4209
 6102SOL    HW224180   0.857   4.541   1.834  1.3673 -0.1620 -2.8243
 6102SOL    HW324181   0.853   4.406   1.902 -0.6874  1.1514 -0.1886
 6102SOL    MW424182   0.898   4.473   1.871  0.2323 -0.3966  0.1126
 6103SOL     OW24183   3.850   2.590   4.718  0.5299  0.7080  0.2979
 6103SOL    HW224184   3.842   2.685   4.730  1.3781  0.7401  0.7263
 6103SOL    HW324185   3.850   2.578   4.623  0.7755  1.1806  0.2340
 6103SOL    MW424186   3.849   2.601   4.707 -0.2905 -0.4367 -0.0849
 6104SOL     OW24187   6.132   2.078   3.390 -0.5319 -0.2139  0.0172
 6104SOL    HW224188   6.085   2.003   3.353  0.6822 -0.9424 -0.1184
 6104SOL    HW324189   6.199   2.039   3.447  2.2006  0.5192 -2.4075
 6104SOL    MW424190   6.135   2.063   3.393  0.4975  0.2048 -0.2187
 6105SOL     OW24191   3.702   5.688   5.470 -0.3181 -0.3893 -0.2501
 6105SOL    HW224192   3.748   5.628   5.529  1.4775  0.0877 -1.1158
 6105SOL    HW324193   3.710   5.648   5.384  2.0519  1.6129 -1.0746
 6105SOL    MW424194   3.709   5.675   5.467 -0.3147  0.7843  0.8477
 6106SOL     OW24195   6.368   2.954   3.227 -0.1363  0.4988  0.0534
 6106SOL    HW224196   6.437   2.980   3.287  0.0850 -0.0355  0.0358
 6106SOL    HW324197   6.289   2.948   3.281 -0.3098  1.7046 -0.0398
 6106SOL    MW424198   6.366   2.957   3.242  0.2420  0.4966  0.6756
 6107SOL     OW24199   5.274   1.719   1.624  0.3013  0.8828 -0.3910
 6107SOL    HW224200   5.273   1.711   1.720  1.2068 -0.8793 -0.4903
 6107SOL    HW324201   5.192   1.678   1.596  0.4653  0.5562 -0.4022
 6107SOL    MW424202   5.263   1.712   1.633 -0.2069 -0.1251 -0.3659
 6108SOL     OW24203   2.074   4.204   2.196  0.9373  0.0892 -0.3150
 6108SOL    HW224204   2.048   4.191   2.105 -0.5307  0.0153  0.1004
 6108SOL    HW324205   2.065   4.118   2.237 -1.3645  0.6794  0.5949
 6108SOL    MW424206   2.070   4.191   2.190 -0.4455  0.2316 -0.2120
 6109SOL     OW24207   1.033   0.652   5.844 -0.0460 -0.3814 -0.2869
 6109SOL    HW224208   1.088   0.718   5.885 -0.3664  0.4104 -1.0956
 6109SOL    HW324209   1.093   0.581   5.821  0.1712 -0.7551  1.3247
 6109SOL    MW424210   1.048   0.651   5.846 -0.8457 -0.0796  0.4356
 6110SOL     OW24211   3.706   1.499   3.783 -0.2570 -0.1984 -0.6938
 6110SOL    HW224212   3.646   1.537   3.846  2.0828 -0.2280  1.7441
 6110SOL    HW324213   3.650   1.462   3.715 -2.9643 -0.5330  1.5430
 6110SOL    MW424214   3.691   1.499   3.782  0.2230 -0.8081  0.5013
 6111SOL     OW24215   2.371   5.670   0.379  0.0105  1.1098 -0.5305
 6111SOL    HW224216   2.430   5.637   0.311 -1.7104  0.7263 -1.9240
 6111SOL    HW324217   2.334   5.750   0.342 -1.0127  0.8628 -0.0808
 6111SOL    MW424218   2.374   5.676   0.365  0.1085 -0.0646  0.9139
 6112SOL     OW24219   3.431   6.313   6.000  0.0390  0.1547  0.4521
 6112SOL    HW224220   3.436   6.392   6.053 -0.9034  0.6170 -0.1335
 6112SOL    HW324221   3.403   6.343   5.914 -0.1476 -0.7937  0.1662
 6112SOL    MW424222   3.428   6.327   5.996  0.6999  0.2225  0.6477
 6113SOL     OW24223   3.835   4.855   4.494  0.3030  0.0984  0.2268
 6113SOL    HW224224   3.771   4.801   4.448 -0.4153 -1.1451  2.5357
 6113SOL    HW324225   3.899   4.878   4.427 -1.8102  0.2794 -1.8777
 6113SOL    MW424226   3.835   4.851   4.479 -0.6453 -0.0734 -0.3138
 6114SOL     OW24227   3.862   1.540   0.789  0.1071 -0.1528 -0.1938
 6114SOL    HW224228   3.911   1.585   0.858 -0.1291 -0.1120 -0.0519
 6114SOL    HW324229   3.842   1.454   0.825  3.1005 -1.5671 -1.5258
 6114SOL    MW424230   3.866   1.535   0.803 -0.0834 -0.1123  0.6499
 6115SOL     OW24231   3.489   2.156   1.362  0.1271  0.0744 -0.1165
 6115SOL    HW224232   3.578   2.166   1.394  0.7042 -0.4644 -1.4948
 6115SOL    HW324233   3.498   2.124   1.272 -1.4574 -1.0547  0.0681
 6115SOL    MW424234   3.502   2.153   1.354  0.0721  0.0594 -0.2524
 6116SOL     OW24235   1.407   0.386   3.646 -0.0709 -0.1575  0.1157
 6116SOL    HW224236   1.413   0.404   3.552 -1.4178 -0.1537  0.0135
 6116SOL    HW324237   1.371   0.297   3.651 -0.4430  0.0197  0.6315
 6116SOL    MW424238   1.403   0.376   3.634  0.2653  0.0887 -0.3335
 6117SOL     OW24239   3.628   5.191   3.821 -0.7604  0.1062 -0.0466
 6117SOL    HW224240   3.710   5.148   3.843 -0.7122  0.2794  0.1244
 6117SOL    HW324241   3.654   5.276   3.784 -0.8177 -0.5241 -1.5935
 6117SOL    MW424242   3.642   5.197   3.819  0.1447 -0.1287 -0.0298
 6118SOL     OW24243   0.694   3.072   5.994  0.0940  0.2672 -0.2483
 6118SOL    HW224244   0.779   3.105   6.022  0.1860 -0.1639 -0.0001
 6118SOL    HW324245   0.639   3.077   6.072  0.0509  0.0297 -0.2627
 6118SOL    MW424246   0.698   3.077   6.008 -0.0878  0.1076 -0.3473
 6119SOL     OW24247   2.923   4.822   3.208 -0.3927 -0.1449 -0.0932
 6119SOL    HW224248   2.978   4.776   3.272  1.4129  1.9246 -0.0308
 6119SOL    HW324249   2.941   4.779   3.125 -0.7679 -1.1956  0.3552
 6119SOL    MW424250   2.933   4.811   3.205 -0.4352 -0.3868 -0.4824
 6120SOL     OW24251   0.421   5.923   5.084  0.3766 -0.7694  0.0649
 6120SOL    HW224252   0.424   6.018   5.097  1.5149 -0.8732  0.7268
 6120SOL    HW324253   0.352   5.893   5.144 -0.6578 -0.2729 -0.8557
 6120SOL    MW424254   0.413   5.931   5.094 -0.3187 -0.5790  0.3797
 6121SOL     OW24255   5.744   4.133   6.017 -0.0800  0.3778 -0.0416
 6121SOL    HW224256   5.728   4.166   5.928  1.5653 -0.6371 -0.7788
 6121SOL    HW324257   5.838   4.149   6.031  0.1157 -1.2290  0.7140
 6121SOL    MW424258   5.755   4.139   6.007  0.1486  0.1348  0.1737
 6122SOL     OW24259   3.498   4.336   0.590  0.1401  0.3868 -0.1232
 6122SOL    HW224260   3.417   4.289   0.570 -0.2310  1.1976 -0.5994
 6122SOL    HW324261   3.501   4.340   0.685 -0.1061 -0.1154 -0.0935
 6122SOL    MW424262   3.488   4.330   0.600 -0.1026  0.5570  0.6108
 6123SOL     OW24263   2.993   2.937   6.310 -0.2422  0.3992 -0.0406
 6123SOL    HW224264   2.919   2.992   6.284 -0.1450  0.7034  0.3184
 6123SOL    HW324265   3.031   2.982   6.385  0.8558  0.7064 -0.7606
 6123SOL    MW424266   2.988   2.950   6.317  0.3194  0.0721  0.1681
 6124SOL     OW24267   4.890   1.874   5.548  0.3203  0.5903  0.3559
 6124SOL    HW224268   4.905   1.780   5.557  0.1743  0.6941  1.8308
 6124SOL    HW324269   4.863   1.885   5.456  0.5459 -0.7661  0.1097
 6124SOL    MW424270   4.888   1.863   5.537 -0.6353  0.4301  0.0691
 6125SOL     OW24271   6.046   0.223   2.665  0.2506  0.3045  0.3573
 6125SOL    HW224272   5.966   0.194   2.622 -1.6464  2.1177  2.4301
 6125SOL    HW324273   6.078   0.294   2.609 -0.8264  1.0226  0.6255
 6125SOL    MW424274   6.040   0.228   2.652 -0.6630  0.6167  0.3568
 6126SOL     OW24275   1.440   2.774   3.277  0.4554 -0.1426 -0.1012
 6126SOL    HW224276   1.369   2.780   3.213  1.6676  0.6029 -1.4333
 6126SOL    HW324277   1.510   2.727   3.232  0.9315 -0.6240  1.0895
 6126SOL    MW424278   1.440   2.768   3.263 -0.1710 -0.3502 -0.3600
 6127SOL     OW24279   2.488   1.371   5.907 -0.9715  0.2833 -0.7239
 6127SOL    HW224280   2.532   1.291   5.936  0.2949  0.9451 -0.7590
 6127SOL    HW324281   2.409   1.340   5.863 -0.9077 -0.9098 -0.0537
 6127SOL    MW424282   2.483   1.357   5.905 -0.0633  0.5239  0.3893
 6128SOL     OW24283   2.873   0.894   0.497 -0.1792  0.0869 -0.0930
 6128SOL    HW224284   2.833   0.979   0.520  0.2932  0.2718  0.0428
 6128SOL    HW324285   2.937   0.879   0.566 -0.0814 -0.2612 -0.2636
 6128SOL    MW424286   2.876   0.903   0.509 -0.3473  0.3110 -0.2839
 6129SOL     OW24287   2.936   4.185   3.493  0.1463 -0.0605  0.3398
 6129SOL    HW224288   2.937   4.097   3.533 -0.3451 -0.2550 -0.0652
 6129SOL    HW324289   2.844   4.211   3.497  0.3964  0.7522  1.1195
 6129SOL    MW424290   2.924   4.177   3.499  0.7829 -0.1623  0.1545
 6130SOL     OW24291   0.390   2.388   6.154 -0.3825 -0.0874  0.1413
 6130SOL    HW224292   0.400   2.424   6.242  1.7182 -1.3420  0.4845
 6130SOL    HW324293   0.473   2.407   6.111 -1.6555  1.2480 -1.9288
 6130SOL    MW424294   0.402   2.395   6.160  0.3065  0.0589  0.0538
 6131SOL     OW24295   2.878   3.040   5.313  0.1404  0.2904  0.5646
 6131SOL    HW224296   2.925   3.027   5.231 -1.2790 -0.4586 -0.1825
 6131SOL    HW324297   2.925   3.110   5.358  0.8354  0.8434 -0.9700
 6131SOL    MW424298   2.890   3.047   5.308  0.6702 -0.5801 -0.3529
 6132SOL     OW24299   6.065   4.756   4.125  0.4287 -0.1156  0.3015
 6132SOL    HW224300   6.093   4.750   4.216 -0.0753  0.4284  0.4972
 6132SOL    HW324301   5.991   4.816   4.126  0.8254  0.4166 -0.5592
 6132SOL    MW424302   6.059   4.763   4.137  0.3848  0.2421  0.1694
 6133SOL     OW24303   1.008   3.337   1.586  0.4768  0.2763 -0.8747
 6133SOL    HW224304   0.957   3.360   1.508 -0.4135 -0.5714 -0.5683
 6133SOL    HW324305   0.945   3.292   1.643  1.4686 -0.4055 -0.2890
 6133SOL    MW424306   0.993   3.334   1.583  0.2359  0.4561 -0.0284
 6134SOL     OW24307   4.884   3.396   2.184 -0.1046 -0.2296  0.2903
 6134SOL    HW224308   4.844   3.336   2.247 -1.1553  0.5228  0.3673
 6134SOL    HW324309   4.976   3.400   2.210 -0.1423 -1.3059  0.6684
 6134SOL    MW424310   4.891   3.388   2.196  0.0166  0.0075  0.2833
 6135SOL     OW24311   4.729   2.170   1.400 -0.0970 -0.7069 -0.6926
 6135SOL    HW224312   4.812   2.218   1.398 -1.2219  1.4558  0.3394
 6135SOL    HW324313   4.683   2.198   1.321 -0.6216 -0.3264 -0.2619
 6135SOL    MW424314   4.734   2.180   1.389  0.5292 -0.1582 -0.0158
 6136SOL     OW24315   2.606   1.100   5.938 -0.2542  0.7989  0.3269
 6136SOL    HW224316   2.660   1.113   6.016 -1.5863  0.5524  1.3401
 6136SOL    HW324317   2.527   1.058   5.971 -0.9033  0.7960 -1.1563
 6136SOL    MW424318   2.603   1.097   5.953 -0.2063 -0.0840  0.0825
 6137SOL     OW24319   3.801   4.320   5.935 -0.1898 -0.2272 -0.6343
 6137SOL    HW224320   3.716   4.324   5.979  0.9647  0.2682  1.6861
 6137SOL    HW324321   3.805   4.231   5.899 -1.4172 -0.4610 -0.2391
 6137SOL    MW424322   3.790   4.308   5.936 -0.3752  0.5486  0.7586
 6138SOL     OW24323   4.206   5.888   4.905  0.0710 -0.4524 -0.1934
 6138SOL    HW224324   4.114   5.875   4.880 -0.0811  0.9384 -0.4485
 6138SOL    HW324325   4.252   5.903   4.822  0.3623 -0.2745 -0.0040
 6138SOL    MW424326   4.200   5.888   4.890  0.0981 -0.1232  0.0370
 6139SOL     OW24327   2.797   2.476   5.376  0.5938 -0.5859  0.4611
 6139SOL    HW224328   2.759   2.402   5.329  1.7118 -0.3569 -0.8614
 6139SOL    HW324329   2.787   2.454   5.468 -0.7306 -1.5327  0.1195
 6139SOL    MW424330   2.790   2.463   5.382 -0.1707  0.4293 -0.4234
 6140SOL     OW24331   3.114   0.831   2.647  0.4378 -0.7800  0.0623
 6140SOL    HW224332   3.156   0.853   2.730 -0.2824 -1.9104  0.7538
 6140SOL    HW324333   3.144   0.899   2.587  0.5544  0.3945  1.3703
 6140SOL    MW424334   3.124   0.843   2.650 -0.1638  0.0111 -0.3047
 6141SOL     OW24335   0.963   6.226   6.324 -0.0438  0.1577 -0.0375
 6141SOL    HW224336   0.981   6.212   6.417  0.2014 -0.6523 -0.2030
 6141SOL    HW324337   0.928   6.315   6.320 -2.3761 -0.6355  1.1500
 6141SOL    MW424338   0.961   6.236   6.336 -0.6059  0.1657  0.0032
 6142SOL     OW24339   5.530   3.372   5.064 -0.0972 -0.1833 -0.6468
 6142SOL    HW224340   5.438   3.390   5.044 -0.2866 -1.2283 -0.7543
 6142SOL    HW324341   5.540   3.277   5.052  0.7974 -0.2088  0.1594
 6142SOL    MW424342   5.520   3.362   5.059  0.3554  0.4345 -0.3760
 6143SOL     OW24343   2.189   3.760   4.257 -0.2103 -0.2073 -0.1511
 6143SOL    HW224344   2.171   3.820   4.185 -1.6442 -0.6630 -0.1892
 6143SOL    HW324345   2.199   3.816   4.334  1.2837  0.2799 -0.6479
 6143SOL    MW424346   2.188   3.775   4.257  0.8133 -0.2032 -0.2009
 6144SOL     OW24347   2.236   0.851   2.072  0.5266  0.4402 -0.0023
 6144SOL    HW224348   2.275   0.916   2.131  0.5825  0.3218  0.0919
 6144SOL    HW324349   2.173   0.804   2.127  0.6963  0.2212  0.0066
 6144SOL    MW424350   2.233   0.853   2.087 -0.0554 -0.3176 -0.4900
 6145SOL     OW24351   0.856   2.184   4.406 -0.1120  0.3119  0.5728
 6145SOL    HW224352   0.779   2.175   4.462  0.1538 -0.2129  0.8700
 6145SOL    HW324353   0.929   2.199   4.467  0.2872 -0.9265  0.4406
 6145SOL    MW424354   0.856   2.185   4.421  0.1386  0.2683 -0.4225
 6146SOL     OW24355   3.839   3.542   2.394 -0.0744 -0.0898  0.2446
 6146SOL    HW224356   3.800   3.470   2.344 -0.2590 -0.8175  1.4058
 6146SOL    HW324357   3.777   3.558   2.464  0.6860  0.2023  0.8585
 6146SOL    MW424358   3.825   3.534   2.396 -0.0998 -0.1437 -0.0244
 6147SOL     OW24359   1.082   0.704   0.805 -0.4902 -0.0909  0.3532
 6147SOL    HW224360   1.129   0.767   0.860 -0.1517 -1.2931  1.5180
 6147SOL    HW324361   0.991   0.711   0.834 -0.8716  1.3883 -1.0677
 6147SOL    MW424362   1.076   0.713   0.816  0.1161 -0.2419 -0.3719
 6148SOL     OW24363   3.015   3.479   4.238 -0.3946  0.2938  0.0286
 6148SOL    HW224364   2.922   3.465   4.219 -0.4120  0.1114  0.2363
 6148SOL    HW324365   3.042   3.548   4.178 -0.6728  0.3668 -0.0150
 6148SOL    MW424366   3.006   3.486   4.228  0.4057  0.2342 -0.0498
 6149SOL     OW24367   5.432   3.108   1.925  0.5908  0.0069  0.0338
 6149SOL    HW224368   5.420   3.169   1.852  1.9997  0.5142  0.1897
 6149SOL    HW324369   5.489   3.040   1.889  0.1632 -0.4752  0.2646
 6149SOL    MW424370   5.438   3.107   1.910  0.1722 -0.0504 -0.2657
 6150SOL     OW24371   1.460   4.686   6.125  0.0113 -0.3257 -0.1699
 6150SOL    HW224372   1.486   4.606   6.170 -0.1068 -0.5146 -0.4356
 6150SOL    HW324373   1.527   4.750   6.150  0.3670 -0.6314 -0.3192
 6150SOL    MW424374   1.472   4.684   6.134 -0.5881 -0.6005  0.0213
 6151SOL     OW24375   4.463   0.459   1.335  0.6081  0.4605 -0.0946
 6151SOL    HW224376   4.550   0.424   1.356  0.7150  1.2746  0.8775
 6151SOL    HW324377   4.403   0.390   1.365  0.8838  0.3353  0.1878
 6151SOL    MW424378   4.467   0.445   1.342  0.4444  0.5297 -0.3349
 6152SOL     OW24379   5.990   2.401   5.773  0.0718  0.5635 -0.3297
 6152SOL    HW224380   6.016   2.312   5.794 -1.0330 -0.0413 -1.4235
 6152SOL    HW324381   6.011   2.411   5.680 -0.8636  1.0425 -0.5019
 6152SOL    MW424382   5.996   2.391   5.764  0.0856  0.1358  0.4167
 6153SOL     OW24383   2.154   3.129   0.476  0.3770  0.4279  0.5593
 6153SOL    HW224384   2.159   3.036   0.455 -0.8214  0.1964  1.2206
 6153SOL    HW324385   2.189   3.136   0.564 -1.7250  0.1965  1.4789
 6153SOL    MW424386   2.159   3.118   0.485  0.0016 -0.3520  0.5595
 6154SOL     OW24387   1.269   3.113   1.686 -0.0567  0.0456  0.2193
 6154SOL    HW224388   1.198   3.095   1.748 -0.8093 -0.5619 -0.7789
 6154SOL    HW324389   1.225   3.130   1.603  0.9233  0.9996 -0.1324
 6154SOL    MW424390   1.254   3.113   1.683 -0.2720  0.0937  0.2082
 6155SOL     OW24391   4.896   3.731   2.813  0.0762 -0.2626 -0.2598
 6155SOL    HW224392   4.864   3.666   2.751  0.5085 -2.2898  1.5343
 6155SOL    HW324393   4.844   3.716   2.892 -0.2901  2.0743  0.0338
 6155SOL    MW424394   4.885   3.720   2.815 -0.1641 -0.2019  0.2198
 6156SOL     OW24395   4.410   3.843   2.787 -0.3735  0.6773  0.4388
 6156SOL    HW224396   4.377   3.768   2.836  2.1740  0.0630  1.3883
 6156SOL    HW324397   4.405   3.816   2.695  0.1305 -0.5213  0.7451
 6156SOL    MW424398   4.405   3.830   2.782  0.5324 -0.7346 -0.2991
 6157SOL     OW24399   3.287   3.320   0.677  0.5364 -0.2268 -0.0601
 6157SOL    HW224400   3.379   3.310   0.702  0.5197  2.0956  1.2501
 6157SOL    HW324401   3.284   3.404   0.630 -1.1728  0.8408  1.7691
 6157SOL    MW424402   3.299   3.330   0.674 -0.0356  0.0024 -0.1075
 6158SOL     OW24403   1.493   3.146   5.154 -0.1744 -0.1741  0.0147
 6158SOL    HW224404   1.498   3.242   5.154  1.7450 -0.2171 -0.7781
 6158SOL    HW324405   1.501   3.122   5.062  1.4097 -1.1212  0.3590
 6158SOL    MW424406   1.495   3.155   5.142 -0.0573 -0.0024 -0.4236
 6159SOL     OW24407   5.491   1.898   0.648 -0.7627  0.5038  0.4639
 6159SOL    HW224408   5.404   1.918   0.682 -0.4068  0.1557  1.6271
 6159SOL    HW324409   5.538   1.861   0.723  0.2352  0.2402 -0.2735
 6159SOL    MW424410   5.486   1.896   0.663 -0.9968  0.6669  0.5155
 6160SOL     OW24411   2.792   4.352   1.343  0.6383 -0.3240  0.3327
 6160SOL    HW224412   2.861   4.305   1.296  1.6810  1.1355  0.3181
 6160SOL    HW324413   2.711   4.310   1.316  1.1872  0.3166 -2.6889
 6160SOL    MW424414   2.791   4.341   1.334 -0.4015 -0.2546  0.0456
 6161SOL     OW24415   5.156   4.752   1.966 -0.3245  0.2149 -0.3927
 6161SOL    HW224416   5.245   4.785   1.959 -0.3074  0.1200 -0.6591
 6161SOL    HW324417   5.164   4.668   2.011 -0.1373 -0.3404 -1.4095
 6161SOL    MW424418   5.168   4.745   1.971 -0.1210  0.2893 -0.4081
 6162SOL     OW24419   4.445   4.256   1.564  0.4084  0.3616  0.0711
 6162SOL    HW224420   4.439   4.291   1.653 -1.0346 -0.6523  0.4009
 6162SOL    HW324421   4.455   4.162   1.575 -1.6464 -0.0100 -0.8222
 6162SOL    MW424422   4.446   4.248   1.577  0.2046  0.1196  0.0233
 6163SOL     OW24423   1.669   5.329   5.563  0.5695 -0.3707 -0.1638
 6163SOL    HW224424   1.678   5.238   5.590  0.8811 -0.0988  0.6701
 6163SOL    HW324425   1.673   5.326   5.467 -0.8403 -1.3831 -0.2235
 6163SOL    MW424426   1.670   5.317   5.554  0.2129 -0.3131  0.3448
 6164SOL     OW24427   1.500   2.739   0.149  0.2626  0.4046 -0.4927
 6164SOL    HW224428   1.491   2.751   0.244  0.2493  0.5233 -0.5096
 6164SOL    HW324429   1.546   2.655   0.140 -1.3045 -0.5189 -0.3999
 6164SOL    MW424430   1.505   2.729   0.160  0.1411 -0.0900  0.2117
 6165SOL     OW24431   6.231   4.109   3.103  0.5832  0.0568  0.8423
 6165SOL    HW224432   6.172   4.165   3.152  0.4019  0.1647  0.5061
 6165SOL    HW324433   6.194   4.107   3.015  1.1407  0.2180  0.6004
 6165SOL    MW424434   6.219   4.117   3.098 -0.1260 -0.1538 -0.3232
 6166SOL     OW24435   4.088   3.399   5.936  0.6765  0.1934 -0.2603
 6166SOL    HW224436   4.118   3.458   6.005 -0.7691  0.2484  0.3627
 6166SOL    HW324437   4.080   3.455   5.859  0.7913  0.4730 -0.0728
 6166SOL    MW424438   4.091   3.415   5.935 -0.0540  0.1066  0.0188
 6167SOL     OW24439   6.324   2.579   1.318 -0.1996  0.2066  0.4203
 6167SOL    HW224440   6.366   2.507   1.272 -2.0024 -0.5338 -0.1499
 6167SOL    HW324441   6.305   2.544   1.405 -2.3870 -0.5992 -0.3056
 6167SOL    MW424442   6.327   2.565   1.323 -0.2355  0.2763  0.6190
 6168SOL     OW24443   5.145   3.124   0.686  0.0101 -0.9482  0.3056
 6168SOL    HW224444   5.124   3.032   0.706 -1.1408 -0.9183 -0.6695
 6168SOL    HW324445   5.234   3.121   0.652 -0.2529 -1.8106 -0.3473
 6168SOL    MW424446   5.154   3.111   0.684  0.1755  0.3380 -0.1683
 6169SOL     OW24447   0.687   5.657   2.837  0.0514  0.2865  0.0575
 6169SOL    HW224448   0.761   5.691   2.788 -1.4438  2.1038 -1.0790
 6169SOL    HW324449   0.695   5.697   2.924  0.4815  0.3578 -0.0147
 6169SOL    MW424450   0.698   5.667   2.842  0.0307 -0.5264  0.5346
 6170SOL     OW24451   3.858   6.254   2.662 -0.1065  0.5688 -0.0826
 6170SOL    HW224452   3.815   6.192   2.603 -1.8291  2.0275 -0.4768
 6170SOL    HW324453   3.941   6.213   2.685 -1.6804 -2.4278  0.6980
 6170SOL    MW424454   3.863   6.240   2.657  0.1092  0.1718 -0.1749
 6171SOL     OW24455  -0.000   1.207   0.831  0.0127  0.1181 -0.2399
 6171SOL    HW224456  -0.032   1.123   0.799  2.0903 -0.9425  0.2309
 6171SOL    HW324457  -0.044   1.219   0.915  0.0453 -0.7540 -0.0925
 6171SOL    MW424458  -0.010   1.198   0.838 -0.4859 -0.5776  0.1291
 6172SOL     OW24459   4.027   1.195   5.708 -0.7726  0.1269 -0.6663
 6172SOL    HW224460   4.007   1.124   5.646 -0.0785  0.4366 -1.2545
 6172SOL    HW324461   3.971   1.176   5.784 -0.8803 -0.8403 -0.9643
 6172SOL    MW424462   4.017   1.183   5.710 -0.5657 -0.1167 -0.2919
 6173SOL     OW24463   1.876   3.726   5.777  0.2837  0.0780  0.4969
 6173SOL    HW224464   1.946   3.688   5.723  0.9417  1.9743 -0.0451
 6173SOL    HW324465   1.796   3.684   5.745  0.8465 -0.0056 -0.8684
 6173SOL    MW424466   1.875   3.715   5.765  0.1222  0.1245 -0.1991
 6174SOL     OW24467   0.979   5.227   2.145  0.1003 -0.1803 -0.0936
 6174SOL    HW224468   1.010   5.298   2.089  0.4491 -0.1220  0.1726
 6174SOL    HW324469   0.903   5.263   2.190 -0.0648 -0.1645 -0.3865
 6174SOL    MW424470   0.973   5.241   2.144  0.3666  0.7748 -1.2646
 6175SOL     OW24471   4.607   0.386   1.978 -0.2056 -0.2373  0.1091
 6175SOL    HW224472   4.664   0.312   1.958 -0.8096 -0.0288 -2.7836
 6175SOL    HW324473   4.666   0.462   1.980 -0.1333 -0.2127 -1.5151
 6175SOL    MW424474   4.623   0.386   1.976 -0.6573 -0.3009  0.2843
 6176SOL     OW24475   1.748   5.368   5.295 -0.2991  0.1330 -0.1009
 6176SOL    HW224476   1.728   5.452   5.254  0.4343  1.1022  1.4587
 6176SOL    HW324477   1.842   5.356   5.280  0.2597  1.0808  2.1877
 6176SOL    MW424478   1.758   5.377   5.287  0.6315 -0.1059 -0.0619
 6177SOL     OW24479   2.038   5.924   3.692 -0.0970 -0.0269 -0.4206
 6177SOL    HW224480   2.081   5.952   3.772 -1.0691  2.6828 -0.7404
 6177SOL    HW324481   1.960   5.876   3.722 -0.2520  0.6359  0.2647
 6177SOL    MW424482   2.033   5.921   3.706 -0.2193 -0.3325  0.2543
 6178SOL     OW24483   6.013   3.310   0.759 -0.0705  0.1971 -0.3255
 6178SOL    HW224484   6.025   3.303   0.853 -1.7901  1.2434  0.0267
 6178SOL    HW324485   6.016   3.220   0.727  0.9542 -0.1395  0.6499
 6178SOL    MW424486   6.015   3.298   0.767 -0.2469 -1.1191  0.5607
 6179SOL     OW24487   1.467   5.774   1.312 -0.5842  0.1919 -0.0133
 6179SOL    HW224488   1.388   5.793   1.262 -1.7536  0.0319  1.6962
 6179SOL    HW324489   1.477   5.679   1.305 -0.1060  0.2984 -0.8416
 6179SOL    MW424490   1.458   5.764   1.305  0.2330  0.0793 -0.4121
 6180SOL     OW24491   1.715   4.443   2.637 -0.2807  0.2596  0.1523
 6180SOL    HW224492   1.712   4.463   2.730  1.3819  1.4621  0.0099
 6180SOL    HW324493   1.807   4.459   2.613 -0.3613 -1.3502 -1.4118
 6180SOL    MW424494   1.727   4.448   2.646 -0.4064  0.2334 -0.2458
 6181SOL     OW24495   4.454   6.337   2.740 -0.5062 -0.6682  0.3361
 6181SOL    HW224496   4.485   6.249   2.719  0.1676 -0.2285 -0.5750
 6181SOL    HW324497   4.407   6.365   2.661 -0.5529 -0.1342  0.5484
 6181SOL    MW424498   4.452   6.329   2.726  0.6142 -0.2146 -0.3427
 6182SOL     OW24499   0.429   3.951   1.640 -0.5333  0.4684  0.2593
 6182SOL    HW224500   0.361   4.003   1.596  0.4355  1.1830 -0.4289
 6182SOL    HW324501   0.509   3.971   1.592  0.1640 -0.3978  1.0355
 6182SOL    MW424502   0.430   3.961   1.628 -0.2825 -0.2943 -0.5478
 6183SOL     OW24503   5.246   2.363   5.398 -0.6577 -0.2911 -0.7198
 6183SOL    HW224504   5.258   2.412   5.317  0.5703  1.7098  0.5675
 6183SOL    HW324505   5.323   2.307   5.403  0.4925  1.2712  0.0963
 6183SOL    MW424506   5.258   2.362   5.388  0.1531 -0.3529 -0.3556
 6184SOL     OW24507   3.932   6.399   1.594  1.2871  0.5568  0.3571
 6184SOL    HW224508   3.976   6.325   1.552  0.0918 -0.5727  1.0140
 6184SOL    HW324509   3.872   6.359   1.657  0.5536  2.0890  0.6869
 6184SOL    MW424510   3.930   6.384   1.597  0.4419  0.2414 -0.0447
 6185SOL     OW24511   3.856   5.942   1.925  0.3037 -0.1557  0.4587
 6185SOL    HW224512   3.832   5.953   1.833 -0.1808  0.1299  0.6160
 6185SOL    HW324513   3.931   6.000   1.937 -0.3906  0.7491  0.5387
 6185SOL    MW424514   3.863   5.951   1.915 -0.1121 -0.4074 -0.1261
 6186SOL     OW24515   3.080   2.888   0.401  0.6232  0.3866  0.0924
 6186SOL    HW224516   3.139   2.822   0.364 -0.3212 -0.2259 -0.3619
 6186SOL    HW324517   3.133   2.934   0.466  1.6425 -0.0458 -0.4154
 6186SOL    MW424518   3.095   2.885   0.405  0.3362  0.5262  0.3975
 6187SOL     OW24519   5.607   0.696   3.162  0.0679 -0.6213  0.4104
 6187SOL    HW224520   5.675   0.643   3.120  0.1854  1.2326 -1.9787
 6187SOL    HW324521   5.573   0.752   3.092  0.1811  2.6959  2.7523
 6187SOL    MW424522   5.611   0.696   3.147 -0.5807  0.5790  1.4611
 6188SOL     OW24523   1.048   4.373   1.641  0.3266 -0.3390  0.3982
 6188SOL    HW224524   0.976   4.330   1.596  0.7991 -0.5506 -0.1627
 6188SOL    HW324525   1.009   4.407   1.722 -0.4675 -0.1927 -0.0355
 6188SOL    MW424526   1.034   4.372   1.646 -0.2461  0.7028 -0.9132
 6189SOL     OW24527   4.778   5.469   1.243 -0.3171  0.1114  0.8273
 6189SOL    HW224528   4.867   5.455   1.274 -0.5808  0.1129  1.6057
 6189SOL    HW324529   4.740   5.531   1.305 -1.0504 -0.3534  0.8622
 6189SOL    MW424530   4.785   5.475   1.255  0.1151 -0.1411 -0.2261
 6190SOL     OW24531   0.023   0.074   3.755 -0.1394 -0.3993 -0.4282
 6190SOL    HW224532   0.002  -0.018   3.739  1.3292 -1.1285  1.5164
 6190SOL    HW324533   0.084   0.097   3.684 -0.6297 -0.8435 -1.0098
 6190SOL    MW424534   0.028   0.065   3.743  0.4135  0.1239  0.3262
 6191SOL     OW24535   3.434   5.096   3.628 -0.0140  0.2919 -0.5079
 6191SOL    HW224536   3.446   5.004   3.604 -0.0210  0.4485 -1.1430
 6191SOL    HW324537   3.520   5.125   3.658 -0.3589 -0.3250  1.1771
 6191SOL    MW424538   3.447   5.088   3.629 -0.4931 -0.0701  0.6403
 6192SOL     OW24539   2.568   2.232   3.845  0.4237 -0.0943 -0.3858
 6192SOL    HW224540   2.595   2.231   3.754 -0.5910  0.2383 -0.7030
 6192SOL    HW324541   2.569   2.325   3.870  0.1290 -0.1281 -0.2387
 6192SOL    MW424542   2.572   2.244   3.836  0.2261  0.0037 -0.2581
 6193SOL     OW24543   1.023   1.374   0.394 -0.0123 -0.5447  0.0598
 6193SOL    HW224544   1.117   1.355   0.392  0.5295  1.8287 -0.8110
 6193SOL    HW324545   0.999   1.368   0.487  0.7670 -2.0173  0.1950
 6193SOL    MW424546   1.032   1.371   0.406 -1.0927 -0.3039  0.3524
 6194SOL     OW24547   5.042   5.868   2.251  0.0896 -0.7532  0.7162
 6194SOL    HW224548   5.001   5.911   2.175  0.2309 -1.3578  0.2886
 6194SOL    HW324549   5.123   5.831   2.217 -0.0597 -1.4110  1.0579
 6194SOL    MW424550   5.047   5.869   2.236 -0.1098  0.3548  0.0905
 6195SOL     OW24551   5.384   6.127   6.251 -0.0923 -0.4651 -0.4573
 6195SOL    HW224552   5.394   6.214   6.212  0.3180 -0.3064  0.0052
 6195SOL    HW324553   5.369   6.143   6.344  4.2718 -0.9504  0.5333
 6195SOL    MW424554   5.383   6.140   6.258 -0.2608  0.3342  0.1574
 6196SOL     OW24555   1.307   4.698   1.862  0.4794 -0.2084 -0.0638
 6196SOL    HW224556   1.270   4.648   1.790  1.0232 -0.0398 -0.4661
 6196SOL    HW324557   1.254   4.673   1.938  0.7007 -1.3333 -0.2632
 6196SOL    MW424558   1.295   4.688   1.863  0.1400  0.2718 -0.2316
 6197SOL     OW24559   3.531   3.416   2.967 -0.2142 -0.1852  0.1983
 6197SOL    HW224560   3.523   3.510   2.984 -0.2796 -0.0051 -0.7612
 6197SOL    HW324561   3.569   3.411   2.879  2.9126 -1.0299  1.4568
 6197SOL    MW424562   3.535   3.428   2.958 -1.1385  1.0729 -0.1592
 6198SOL     OW24563   3.084   2.969   2.546  0.4922 -0.1664 -0.0662
 6198SOL    HW224564   3.131   3.013   2.475 -0.6635 -1.2417 -1.5864
 6198SOL    HW324565   3.015   3.030   2.571  0.6798  0.0697 -0.1212
 6198SOL    MW424566   3.081   2.983   2.540  0.1912  0.1536  0.0248
 6199SOL     OW24567   0.432   3.680   4.575  0.5751 -0.3698 -0.3852
 6199SOL    HW224568   0.470   3.666   4.662  0.2951  0.5451 -0.1051
 6199SOL    HW324569   0.499   3.731   4.528 -0.0938  0.8638 -0.0368
 6199SOL    MW424570   0.446   3.685   4.580  0.1745  0.4295  0.6050
 6200SOL     OW24571   3.365   5.441   0.958 -0.2837  0.0514 -0.3559
 6200SOL    HW224572   3.437   5.384   0.984  1.6505  2.5385  0.0428
 6200SOL    HW324573   3.344   5.413   0.868 -0.5260 -2.2529  0.3432
 6200SOL    MW424574   3.371   5.430   0.949  0.1106 -0.2478  0.1883
 6201SOL     OW24575   0.806   1.729   6.239  0.2458 -0.0654  0.7660
 6201SOL    HW224576   0.830   1.779   6.317  0.6493 -1.0290  1.2779
 6201SOL    HW324577   0.713   1.711   6.249  0.1590  0.3446  0.7126
 6201SOL    MW424578   0.797   1.733   6.250  0.3194 -0.3960  0.1969
 6202SOL     OW24579   0.202   1.326   5.694 -0.4604 -0.1415  0.1237
 6202SOL    HW224580   0.174   1.361   5.609 -2.7837 -1.5707  0.1948
 6202SOL    HW324581   0.123   1.285   5.730  1.0439 -1.6731  1.9090
 6202SOL    MW424582   0.188   1.325   5.687  0.3678 -0.2758  0.0787
 6203SOL     OW24583   3.683   2.689   6.413 -0.3934  0.4377  0.1152
 6203SOL    HW224584   3.743   2.650   6.477  1.6643  1.0598 -1.3084
 6203SOL    HW324585   3.596   2.673   6.449  0.5728 -1.0020  2.0431
 6203SOL    MW424586   3.680   2.682   6.426 -0.1590 -0.2716 -0.2511
 6204SOL     OW24587   3.221   0.248   4.919 -0.7990  0.4262 -0.3066
 6204SOL    HW224588   3.313   0.260   4.942 -0.5424 -2.4010  0.6557
 6204SOL    HW324589   3.173   0.304   4.980  0.2565  1.9988 -0.8747
 6204SOL    MW424590   3.226   0.257   4.930  0.0337  0.2296 -0.1864
 6205SOL     OW24591   3.858   5.040   3.934 -0.0377  0.0554  0.4254
 6205SOL    HW224592   3.927   5.092   3.975 -0.5703 -1.0698  2.8781
 6205SOL    HW324593   3.889   4.950   3.939 -0.3335 -0.1766 -1.3232
 6205SOL    MW424594   3.871   5.035   3.940  0.2569 -0.3808  0.0445
 6206SOL     OW24595   0.745   1.462   3.305 -0.7437  0.6543  0.3988
 6206SOL    HW224596   0.673   1.491   3.249 -0.0603  0.7830 -0.4230
 6206SOL    HW324597   0.737   1.516   3.384 -0.4913  1.9349 -0.4176
 6206SOL    MW424598   0.734   1.473   3.308  0.3752 -0.0537 -0.1428
 6207SOL     OW24599   0.038   2.302   3.777  0.0687  0.3091  0.4290
 6207SOL    HW224600   0.031   2.218   3.733  0.5920  0.2381  0.4733
 6207SOL    HW324601   0.085   2.358   3.716  0.6025  0.2734  0.7956
 6207SOL    MW424602   0.043   2.298   3.763 -0.7187  0.2231 -0.3912
 6208SOL     OW24603   1.064   1.210   0.132 -0.4446  0.2613 -0.1250
 6208SOL    HW224604   1.058   1.182   0.223  0.2081  2.3421  0.6224
 6208SOL    HW324605   0.977   1.194   0.096  0.0121 -3.2324 -0.0380
 6208SOL    MW424606   1.052   1.204   0.139  0.4547 -0.1243  0.0464
 6209SOL     OW24607   1.908   0.408   4.904 -0.0071 -0.0707  0.5162
 6209SOL    HW224608   1.860   0.400   4.822  0.9213  0.6889 -0.1270
 6209SOL    HW324609   1.860   0.475   4.953 -0.8700 -0.9033  0.8358
 6209SOL    MW424610   1.895   0.416   4.900 -0.0803  0.1090  0.5801
 6210SOL     OW24611   2.393   5.263   4.088  0.2062 -0.2701 -0.0523
 6210SOL    HW224612   2.317   5.205   4.080 -0.6546  0.9504 -1.4307
 6210SOL    HW324613   2.454   5.232   4.021 -0.4033  0.5646 -1.0331
 6210SOL    MW424614   2.391   5.251   4.078 -0.2599 -0.2288  0.1130
 6211SOL     OW24615   0.740   5.071   4.858  0.2438  0.1362 -0.1704
 6211SOL    HW224616   0.822   5.028   4.833  2.2292  1.9492  2.4742
 6211SOL    HW324617   0.697   5.009   4.917  0.9887  0.0980  0.3527
 6211SOL    MW424618   0.745   5.057   4.863 -0.8259  0.1394 -0.1149
 6212SOL     OW24619   3.210   4.638   4.487 -0.7617  0.0531  0.8156
 6212SOL    HW224620   3.192   4.684   4.405  1.2868  0.5724  0.5809
 6212SOL    HW324621   3.125   4.623   4.527 -2.1966 -2.8500 -2.7555
 6212SOL    MW424622   3.197   4.642   4.482 -0.3304 -0.4574  0.1734
 6213SOL     OW24623   1.341   1.241   5.136  0.4824  0.4852 -0.3158
 6213SOL    HW224624   1.331   1.169   5.198  0.0601  1.1723  0.4456
 6213SOL    HW324625   1.372   1.314   5.190 -0.6811  1.3264 -0.7407
 6213SOL    MW424626   1.344   1.241   5.152 -0.1267  0.4970 -0.2232
 6214SOL     OW24627   5.912   0.255   1.785 -0.4943 -0.1817 -0.3357
 6214SOL    HW224628   5.946   0.287   1.701  1.1852 -3.3961 -1.0373
 6214SOL    HW324629   5.821   0.231   1.766 -0.0296 -1.2089 -1.3930
 6214SOL    MW424630   5.904   0.256   1.771 -0.2450  0.1802  0.1094
 6215SOL     OW24631   2.023   5.980   4.284 -0.3347  0.3120  0.4124
 6215SOL    HW224632   2.108   5.964   4.244 -0.7223 -1.7654  0.3350
 6215SOL    HW324633   1.974   6.028   4.218  0.2186  0.0445 -0.2002
 6215SOL    MW424634   2.027   5.984   4.270  0.2812  0.5020  0.3253
 6216SOL     OW24635   5.766   0.305   3.191  0.1338  0.2776 -0.1436
 6216SOL    HW224636   5.850   0.323   3.149 -0.2721  0.5245 -0.8722
 6216SOL    HW324637   5.708   0.281   3.119  0.0577 -1.7652  0.5448
 6216SOL    MW424638   5.770   0.304   3.176 -0.0458  0.4512  0.4865
 6217SOL     OW24639   2.182   2.435   3.972  0.4628  0.0632  0.7568
 6217SOL    HW224640   2.221   2.354   4.006  1.7887  0.6727  0.7451
 6217SOL    HW324641   2.102   2.406   3.928  1.7052 -1.4545 -0.6188
 6217SOL    MW424642   2.177   2.420   3.971 -0.6738 -0.2941  0.9131
 6218SOL     OW24643   0.365   5.947   1.926 -0.2925  0.1532 -0.2991
 6218SOL    HW224644   0.311   6.001   1.868 -0.2190 -0.8009 -1.2961
 6218SOL    HW324645   0.382   6.002   2.002 -0.5171  1.3993 -1.1255
 6218SOL    MW424646   0.360   5.962   1.928  0.2990  0.2731  0.1812
 6219SOL     OW24647   3.627   0.147   2.626  0.0441  0.1957  0.7626
 6219SOL    HW224648   3.608   0.195   2.706  0.6539 -1.2753  1.8337
 6219SOL    HW324649   3.545   0.105   2.602 -0.0292  0.2843  0.8622
 6219SOL    MW424650   3.614   0.148   2.633  0.0898 -0.4023  0.2542
 6220SOL     OW24651   5.845   2.411   1.635 -0.4863  0.6316  0.2140
 6220SOL    HW224652   5.894   2.493   1.630  1.7602 -0.6914 -1.0289
 6220SOL    HW324653   5.844   2.390   1.729  2.6193  0.0426  0.2037
 6220SOL    MW424654   5.851   2.419   1.647 -0.3455  0.3236 -0.3315
 6221SOL     OW24655   0.128   2.418   2.901 -0.5656  0.6298 -0.2089
 6221SOL    HW224656   0.110   2.329   2.873 -0.9579  0.9939 -1.1518
 6221SOL    HW324657   0.205   2.445   2.851 -1.1042  1.1883 -0.7628
 6221SOL    MW424658   0.136   2.410   2.891  0.3064  0.1446 -0.3694
 6222SOL     OW24659   4.404   5.344   1.770 -0.1401 -0.5641 -0.4851
 6222SOL    HW224660   4.489   5.380   1.794 -0.2358 -0.6031 -0.0848
 6222SOL    HW324661   4.421   5.251   1.756 -0.1164 -0.5714 -0.4078
 6222SOL    MW424662   4.418   5.336   1.771 -0.2232 -0.0909  0.2039
 6223SOL     OW24663   2.614   3.142   0.459 -0.2126  0.0383 -0.4527
 6223SOL    HW224664   2.598   3.050   0.436 -2.3148  0.5106 -1.1325
 6223SOL    HW324665   2.540   3.189   0.421  0.8266  2.0395 -0.1341
 6223SOL    MW424666   2.602   3.136   0.451  0.4854 -0.2291  0.0499
 6224SOL     OW24667   1.620   5.257   5.059 -0.0045  0.0894  0.2507
 6224SOL    HW224668   1.557   5.320   5.025  0.1474 -0.4548 -1.0754
 6224SOL    HW324669   1.639   5.289   5.148 -0.0577  1.8144 -0.3125
 6224SOL    MW424670   1.614   5.270   5.066 -0.6256 -0.0782 -0.1011
 6225SOL     OW24671   0.317   5.555   2.588  0.5875 -0.1645 -0.3330
 6225SOL    HW224672   0.303   5.470   2.630  2.0418 -0.3638 -0.2177
 6225SOL    HW324673   0.377   5.601   2.646 -0.1767  0.9586 -0.4015
 6225SOL    MW424674   0.323   5.550   2.601  0.6088 -0.4903 -0.2151
 6226SOL     OW24675   0.082   6.143   2.306 -0.1032  0.2522  0.1705
 6226SOL    HW224676   0.131   6.071   2.347 -0.6628  0.0512  0.5009
 6226SOL    HW324677  -0.004   6.106   2.287 -0.3859  0.8200  0.3054
 6226SOL    MW424678   0.077   6.129   2.309 -0.1505  0.2138  0.0091
 6227SOL     OW24679   0.165   2.779   2.346  0.1716 -1.1999 -0.2223
 6227SOL    HW224680   0.222   2.743   2.414 -0.6649  0.3507  1.3745
 6227SOL    HW324681   0.139   2.703   2.294  0.2374 -2.5709  1.6427
 6227SOL    MW424682   0.169   2.765   2.348  0.2990 -0.1129  0.1622
 6228SOL     OW24683   3.204   3.587   5.769  0.5694 -0.5216 -0.2136
 6228SOL    HW224684   3.263   3.640   5.717  0.1482  1.6636  1.4013
 6228SOL    HW324685   3.162   3.529   5.706 -0.1757  2.2084 -2.4173
 6228SOL    MW424686   3.206   3.586   5.754 -0.0096  0.1208  0.0153
 6229SOL     OW24687   0.010   4.841   2.537  0.0399  0.4585 -0.3166
 6229SOL    HW224688  -0.021   4.798   2.617  2.0739 -0.3488  0.0948
 6229SOL    HW324689  -0.019   4.783   2.466 -0.0922  0.1497 -0.0143
 6229SOL    MW424690   0.002   4.827   2.538  0.0399 -0.2443 -0.2894
 6230SOL     OW24691   3.271   4.925   5.744  0.0219 -0.3955  0.1983
 6230SOL    HW224692   3.305   5.005   5.704 -0.3528 -0.7500 -0.8568
 6230SOL    HW324693   3.188   4.952   5.784  0.9391  0.2132  1.7844
 6230SOL    MW424694   3.265   4.940   5.744  0.2480 -0.1597 -0.2080
 6231SOL     OW24695   4.764  -0.008   5.837 -0.0827  0.0099  0.0663
 6231SOL    HW224696   4.721  -0.091   5.817  0.5172 -0.3126  0.1013
 6231SOL    HW324697   4.831  -0.031   5.901 -0.0633  0.5618  0.2460
 6231SOL    MW424698   4.767  -0.022   5.843 -0.5531 -0.1510  0.5002
 6232SOL     OW24699   2.390   2.945   1.650  0.0879  0.1200 -0.4038
 6232SOL    HW224700   2.420   2.987   1.569  2.3106 -0.6199 -0.0373
 6232SOL    HW324701   2.471   2.926   1.698 -1.1881  1.1406  2.3355
 6232SOL    MW424702   2.405   2.948   1.645 -0.0519  0.4199  0.7444
 6233SOL     OW24703   2.638   3.417   2.123 -0.4269 -0.3023 -0.2911
 6233SOL    HW224704   2.644   3.511   2.136  1.3883 -0.1596 -1.7065
 6233SOL    HW324705   2.623   3.381   2.210 -0.4056  1.2543  0.3726
 6233SOL    MW424706   2.637   3.425   2.136  0.5272 -0.2736  0.0542
 6234SOL     OW24707   1.138   5.748   4.039  0.1601  0.4459  0.1717
 6234SOL    HW224708   1.167   5.810   4.106  0.2100  1.0645 -0.4120
 6234SOL    HW324709   1.212   5.743   3.978  0.5802 -0.9994  0.7597
 6234SOL    MW424710   1.152   5.756   4.040 -0.1308  0.0287  0.4361
 6235SOL     OW24711   4.423   5.923   5.083  0.1155  0.4397 -0.2449
 6235SOL    HW224712   4.336   5.915   5.045 -0.6218 -0.0692  1.4659
 6235SOL    HW324713   4.462   5.836   5.074  1.6633  1.3089 -3.6039
 6235SOL    MW424714   4.417   5.911   5.077 -0.5376  0.4714 -0.7429
 6236SOL     OW24715   3.549   0.790   5.149  0.6494  0.0236  0.4366
 6236SOL    HW224716   3.474   0.795   5.208 -0.7173 -4.4862 -0.4986
 6236SOL    HW324717   3.519   0.834   5.069  0.3668  1.2732  1.2104
 6236SOL    MW424718   3.535   0.797   5.146  0.4015 -0.0936 -0.4063
 6237SOL     OW24719   2.710   3.644   5.075 -0.1980  0.4292  0.0136
 6237SOL    HW224720   2.796   3.665   5.038  0.6555  0.2047  1.7281
 6237SOL    HW324721   2.666   3.728   5.084 -0.1002  0.5648 -0.7211
 6237SOL    MW424722   2.716   3.658   5.072  0.4585 -0.1267  0.3961
 6238SOL     OW24723   0.657   3.626   5.616 -0.1938  0.1397 -0.3594
 6238SOL    HW224724   0.670   3.582   5.532  0.3622  0.8709 -0.6728
 6238SOL    HW324725   0.591   3.693   5.597  1.1142  1.3894 -0.6400
 6238SOL    MW424726   0.650   3.629   5.602  0.1889  0.0651 -0.3497
 6239SOL     OW24727   4.459   1.898   1.374  0.1971  0.1412 -0.5031
 6239SOL    HW224728   4.540   1.855   1.344  1.2830  1.9266 -0.2813
 6239SOL    HW324729   4.464   1.894   1.470  0.4537  0.9840 -0.4743
 6239SOL    MW424730   4.471   1.892   1.383  0.3730  0.2455 -0.0304
 6240SOL     OW24731   0.642   1.106   3.853  0.3022 -0.1492  0.0862
 6240SOL    HW224732   0.651   1.012   3.835  1.7778 -0.4262  1.9061
 6240SOL    HW324733   0.573   1.111   3.919 -0.0616  0.0869 -0.3142
 6240SOL    MW424734   0.634   1.094   3.860 -0.2520 -0.6553 -0.4943
 6241SOL     OW24735   4.001   3.468   5.190  0.0777  0.1076  0.2218
 6241SOL    HW224736   4.077   3.414   5.170 -0.3665 -0.2392 -0.5586
 6241SOL    HW324737   4.013   3.494   5.281  0.2739 -1.3523  0.6373
 6241SOL    MW424738   4.012   3.464   5.200  0.2595 -0.3933  0.3533
 6242SOL     OW24739   0.229   4.342   5.386 -0.6022  0.0102 -0.0347
 6242SOL    HW224740   0.322   4.326   5.404 -0.7360 -0.0597  0.6341
 6242SOL    HW324741   0.225   4.356   5.292  0.0310 -0.3930 -0.1314
 6242SOL    MW424742   0.241   4.341   5.376  0.3072  0.1665 -0.1203
 6243SOL     OW24743   2.375   0.046   1.926  0.3067 -0.0334  0.0924
 6243SOL    HW224744   2.359  -0.043   1.958  0.6447  0.2949  1.2520
 6243SOL    HW324745   2.443   0.036   1.860  1.2813 -0.5209  1.1359
 6243SOL    MW424746   2.382   0.033   1.922 -0.1058  0.0798 -0.4183
 6244SOL     OW24747   4.152   1.905   2.951  0.1437  0.0245 -0.5059
 6244SOL    HW224748   4.194   1.980   2.992  0.1861  0.6017 -1.5566
 6244SOL    HW324749   4.204   1.829   2.980 -0.0956  0.3554  0.8163
 6244SOL    MW424750   4.165   1.905   2.960  0.2536 -0.2323  0.0043
 6245SOL     OW24751   2.940   0.172   3.391  0.2234 -0.3131  0.4209
 6245SOL    HW224752   2.846   0.186   3.400  0.4998  2.0954  0.2824
 6245SOL    HW324753   2.949   0.130   3.305 -0.7422 -1.1541  0.7074
 6245SOL    MW424754   2.929   0.168   3.381 -0.1467 -0.1289  0.0590
 6246SOL     OW24755   1.701   5.095   2.053 -0.3836  0.5197  0.2418
 6246SOL    HW224756   1.732   5.005   2.046  1.4260  1.1961 -1.2365
 6246SOL    HW324757   1.616   5.095   2.010  0.5256 -0.1107 -1.6867
 6246SOL    MW424758   1.694   5.083   2.047 -0.3268 -0.1604 -0.3924
 6247SOL     OW24759   0.160   5.027   0.409 -0.2258  0.1066  0.3592
 6247SOL    HW224760   0.099   5.097   0.387 -1.7839 -1.2811  0.0340
 6247SOL    HW324761   0.151   5.016   0.504  0.0520  0.3573  0.4171
 6247SOL    MW424762   0.151   5.035   0.419 -0.5056 -0.3331 -0.3662
 6248SOL     OW24763   0.300   2.741   5.290  0.9731  0.2619  0.5625
 6248SOL    HW224764   0.270   2.804   5.225 -1.9869 -0.1267  1.3987
 6248SOL    HW324765   0.377   2.782   5.329 -0.3430  3.0378  0.5067
 6248SOL    MW424766   0.306   2.754   5.287  0.3635  0.2315  0.7020
 6249SOL     OW24767   4.306   5.081   5.576 -0.3117 -0.2149 -0.0759
 6249SOL    HW224768   4.377   5.030   5.537  1.1523  2.0513 -0.5495
 6249SOL    HW324769   4.291   5.153   5.515 -2.1713  0.0753  0.6471
 6249SOL    MW424770   4.314   5.084   5.563  0.3716  0.5740  0.2789
 6250SOL     OW24771   0.499   3.089   4.998  0.0831  0.1382 -0.8771
 6250SOL    HW224772   0.512   3.167   5.052  0.3767 -1.2175  1.1212
 6250SOL    HW324773   0.404   3.079   4.995 -0.0623  1.5329 -2.6868
 6250SOL    MW424774   0.488   3.098   5.005  0.1049  0.6022 -0.1784
 6251SOL     OW24775   0.363   1.019   4.503 -0.0997 -0.3047  0.4924
 6251SOL    HW224776   0.290   1.042   4.560 -0.2769 -1.6942  0.8691
 6251SOL    HW324777   0.429   0.982   4.562  0.0606 -0.9729 -0.0835
 6251SOL    MW424778   0.362   1.017   4.519  0.0733 -0.3150  0.1632
 6252SOL     OW24779   3.911   2.173   3.060 -0.0327  0.6668  0.9027
 6252SOL    HW224780   3.909   2.096   3.117  2.2964 -1.1156 -1.2155
 6252SOL    HW324781   4.004   2.192   3.048 -0.4865  1.9445 -1.0678
 6252SOL    MW424782   3.923   2.166   3.066  0.4006  0.1442 -0.4795
 6253SOL     OW24783   0.079   1.164   3.023 -0.2377  0.8489 -0.3024
 6253SOL    HW224784   0.074   1.114   3.105 -1.0010  1.1180 -0.1783
 6253SOL    HW324785   0.090   1.255   3.051 -2.1410  1.1614 -0.4316
 6253SOL    MW424786   0.080   1.169   3.037 -0.0277 -0.2819 -0.3834
 6254SOL     OW24787   0.018   1.968   2.336 -0.3087  0.4228 -0.3865
 6254SOL    HW224788   0.019   1.895   2.397 -1.3106 -1.3167 -2.3233
 6254SOL    HW324789  -0.064   2.014   2.354  0.6872  1.6098  1.3560
 6254SOL    MW424790   0.007   1.965   2.346 -0.0958  0.2065  0.2927
 6255SOL     OW24791   2.941   6.110   4.849 -0.2652  0.1853  0.8126
 6255SOL    HW224792   2.875   6.093   4.782  0.8782  0.8240 -0.5367
 6255SOL    HW324793   2.939   6.205   4.860  0.6573  0.2578  0.4751
 6255SOL    MW424794   2.932   6.120   4.841  0.1713 -0.3305  0.0396
 6256SOL     OW24795   1.338   2.745   1.474 -0.2388  0.1564 -0.1577
 6256SOL    HW224796   1.392   2.667   1.456 -0.7332 -0.3329  0.4456
 6256SOL    HW324797   1.387   2.793   1.541 -0.1188  0.1685 -0.2536
 6256SOL    MW424798   1.352   2.741   1.480  0.0613  0.1093  0.9880
 6257SOL     OW24799   5.850   5.324   5.680  0.1325  0.8175  0.2568
 6257SOL    HW224800   5.878   5.265   5.750  1.0725  0.8688 -0.0729
 6257SOL    HW324801   5.809   5.266   5.616  1.6155  0.4097 -0.3637
 6257SOL    MW424802   5.848   5.308   5.681  0.3066  0.1011 -1.0158
 6258SOL     OW24803   6.149   4.139   5.791  0.1942  0.2771 -0.1267
 6258SOL    HW224804   6.097   4.131   5.871 -0.1841 -0.3584 -0.4318
 6258SOL    HW324805   6.115   4.071   5.733  0.6232  0.5814 -0.7442
 6258SOL    MW424806   6.138   4.129   5.794  0.3124  0.4004 -0.6841
 6259SOL     OW24807   1.823   1.931   2.559 -0.3083  0.3811  0.1214
 6259SOL    HW224808   1.775   2.012   2.539  0.1126  0.6747  0.2742
 6259SOL    HW324809   1.848   1.897   2.474 -0.6030  0.3396  0.0498
 6259SOL    MW424810   1.820   1.938   2.545  0.0927 -0.5041  0.5010
 6260SOL     OW24811   2.529   5.614   4.521  0.0600 -0.2056 -0.5571
 6260SOL    HW224812   2.610   5.614   4.572 -0.4990 -2.4731  0.4333
 6260SOL    HW324813   2.462   5.581   4.581 -2.1314  3.4318 -0.6752
 6260SOL    MW424814   2.531   5.610   4.535 -0.2178 -0.1626 -0.1353
 6261SOL     OW24815   3.789   4.171   2.777 -0.2125  0.4199  0.2625
 6261SOL    HW224816   3.708   4.144   2.735 -0.9548  0.4553  1.6019
 6261SOL    HW324817   3.828   4.234   2.717 -1.6493  1.0969  0.0111
 6261SOL    MW424818   3.784   4.176   2.764  0.2515  0.1794 -0.5198
 6262SOL     OW24819   1.909   4.153   3.816  0.3843 -0.8084 -0.3860
 6262SOL    HW224820   1.832   4.097   3.805 -0.3069  0.4328 -2.2280
 6262SOL    HW324821   1.972   4.120   3.752  0.4850 -0.3299 -0.5355
 6262SOL    MW424822   1.908   4.141   3.806 -0.3420 -0.4657  0.4940
 6263SOL     OW24823   2.031   2.190   1.069 -0.2525  0.3891  0.4870
 6263SOL    HW224824   1.971   2.117   1.080 -1.2057  1.0905  0.0597
 6263SOL    HW324825   2.114   2.149   1.045 -1.0589 -0.5110 -0.8873
 6263SOL    MW424826   2.034   2.175   1.067  0.0532 -0.1258 -0.1572
 6264SOL     OW24827   1.120   2.349   3.773 -0.1998 -0.0119  0.1444
 6264SOL    HW224828   1.207   2.367   3.737  0.4105  0.9027  1.9282
 6264SOL    HW324829   1.127   2.261   3.809 -0.2250 -0.2128 -0.3502
 6264SOL    MW424830   1.133   2.340   3.773  0.0161  0.3027  0.1363
 6265SOL     OW24831   2.157   2.148   1.575 -0.1583  0.5934  0.1311
 6265SOL    HW224832   2.162   2.056   1.551 -1.9032  0.6050 -0.4034
 6265SOL    HW324833   2.073   2.178   1.540 -1.4625  1.4187  3.5641
 6265SOL    MW424834   2.147   2.140   1.567  0.3727  0.2249 -0.4336
 6266SOL     OW24835   1.471   0.296   1.460  0.3036 -0.2692 -0.1483
 6266SOL    HW224836   1.530   0.367   1.487  0.2426 -0.2155 -0.1577
 6266SOL    HW324837   1.400   0.298   1.523 -0.6974  0.9237 -1.2721
 6266SOL    MW424838   1.469   0.305   1.472 -0.5103  0.1731 -0.8506
 6267SOL     OW24839   4.955   6.021   6.413 -0.0885  0.3145  0.3301
 6267SOL    HW224840   4.956   6.090   6.347 -3.5918 -1.4590 -1.9180
 6267SOL    HW324841   4.991   5.945   6.367  0.2206 -0.2570  1.4974
 6267SOL    MW424842   4.960   6.020   6.398 -0.2094  0.1769 -0.0694
 6268SOL     OW24843   1.420   3.741   4.116 -0.1640 -0.4613 -0.8154
 6268SOL    HW224844   1.367   3.814   4.085 -1.3472 -1.3932 -1.0515
 6268SOL    HW324845   1.363   3.694   4.176  0.8577 -0.7612 -0.0608
 6268SOL    MW424846   1.406   3.745   4.120  0.6284 -0.0540  0.3023
 6269SOL     OW24847   4.602   4.550   5.247 -0.1826 -0.2297  0.1619
 6269SOL    HW224848   4.689   4.577   5.217  0.4298 -0.8354  1.3378
 6269SOL    HW324849   4.544   4.619   5.215  0.5818 -0.2522 -1.3921
 6269SOL    MW424850   4.606   4.563   5.239 -0.3447 -0.2626 -0.0217
 6270SOL     OW24851   3.781   3.378   3.982 -0.0607  0.2467  0.4092
 6270SOL    HW224852   3.875   3.389   3.998  0.2508 -0.8021 -0.5994
 6270SOL    HW324853   3.749   3.466   3.964  1.0519  0.4216 -0.8358
 6270SOL    MW424854   3.789   3.391   3.982  0.0159 -0.0964  0.0596
 6271SOL     OW24855   4.248   4.069   1.386  0.0670 -0.1478  0.0029
 6271SOL    HW224856   4.307   4.030   1.451 -0.3981  0.9088  1.1064
 6271SOL    HW324857   4.204   4.140   1.434 -0.5892  0.3992 -1.3709
 6271SOL    MW424858   4.250   4.073   1.401  0.7389 -0.0138 -0.0450
 6272SOL     OW24859   1.521   1.536   1.834 -0.6251  0.3998  0.1613
 6272SOL    HW224860   1.477   1.609   1.789 -1.1489 -0.2027 -0.3222
 6272SOL    HW324861   1.451   1.472   1.847  0.6103 -1.9506 -3.3739
 6272SOL    MW424862   1.506   1.537   1.830  0.0392  0.0994  0.1617
 6273SOL     OW24863   2.664  -0.005   2.288 -0.2910 -0.0143 -0.4141
 6273SOL    HW224864   2.728  -0.073   2.265  1.4224  1.2179  0.5160
 6273SOL    HW324865   2.712   0.055   2.345 -2.1097  1.3441 -0.2269
 6273SOL    MW424866   2.679  -0.006   2.293 -0.2532  0.7063 -0.2425
 6274SOL     OW24867   5.595   4.267   6.192  0.0410 -0.8051  0.3318
 6274SOL    HW224868   5.648   4.262   6.271  2.1457  0.1031 -0.9477
 6274SOL    HW324869   5.646   4.221   6.126  0.9708  2.8963 -1.7970
 6274SOL    MW424870   5.609   4.260   6.194 -0.0022  0.4288  0.0426
 6275SOL     OW24871   4.461   0.028   4.452  0.0628  0.4374  0.5313
 6275SOL    HW224872   4.394  -0.036   4.477  1.7075 -1.2930  0.8017
 6275SOL    HW324873   4.442   0.050   4.361 -0.2409 -0.8754  0.2606
 6275SOL    MW424874   4.450   0.022   4.444  0.6136  0.2227 -0.6651
 6276SOL     OW24875   6.330   3.588   4.233 -0.2603 -0.3426 -0.3266
 6276SOL    HW224876   6.256   3.539   4.270  0.8607 -2.1760 -0.3738
 6276SOL    HW324877   6.358   3.536   4.158  2.7275 -1.1991  1.2304
 6276SOL    MW424878   6.324   3.575   4.228 -0.1660  0.2131  0.2355
 6277SOL     OW24879   1.519   5.695   2.988  0.0785 -0.2654  0.2436
 6277SOL    HW224880   1.511   5.700   2.892  0.4709 -0.9836  0.1669
 6277SOL    HW324881   1.429   5.688   3.019  0.0427 -2.3405 -0.2265
 6277SOL    MW424882   1.506   5.695   2.979 -0.0842 -0.2017  0.0120
 6278SOL     OW24883   3.292   0.213   0.256  0.6460  0.2392 -0.4481
 6278SOL    HW224884   3.313   0.241   0.167  0.6968  0.6273 -0.3137
 6278SOL    HW324885   3.215   0.265   0.280 -0.6705 -1.3475 -1.0378
 6278SOL    MW424886   3.285   0.224   0.247 -0.9573 -0.0434  0.5712
 6279SOL     OW24887   4.834   5.295   2.122  0.1929  0.2445 -0.0553
 6279SOL    HW224888   4.874   5.261   2.202 -1.3174 -0.5942  0.3744
 6279SOL    HW324889   4.834   5.221   2.062  0.0530  0.4778 -0.3420
 6279SOL    MW424890   4.839   5.281   2.125 -0.0172 -0.5556  0.1499
 6280SOL     OW24891   5.940   5.730   3.595 -0.4145  0.2864 -0.8941
 6280SOL    HW224892   5.877   5.661   3.612  0.5713 -0.5889 -0.7231
 6280SOL    HW324893   6.013   5.712   3.654  0.0250  1.2521 -1.1160
 6280SOL    MW424894   5.942   5.719   3.605 -0.1363 -0.1333 -0.0224
 6281SOL     OW24895   1.733   2.742   2.893 -0.5617  0.3901 -0.3796
 6281SOL    HW224896   1.776   2.811   2.944 -0.7611  0.0756  0.2137
 6281SOL    HW324897   1.742   2.771   2.802  0.7410  0.4158 -0.2536
 6281SOL    MW424898   1.740   2.755   2.888 -0.8801 -0.3754 -0.3776
 6282SOL     OW24899   5.027   0.874   2.169 -0.1645 -0.2894  0.2829
 6282SOL    HW224900   4.973   0.942   2.129  0.9870  0.8779  0.6370
 6282SOL    HW324901   5.071   0.832   2.096 -0.3978 -0.2364  0.1096
 6282SOL    MW424902   5.026   0.877   2.154 -0.0995  0.0178 -0.1007
 6283SOL     OW24903   0.913   4.435   4.024  0.0987 -0.3432 -0.0149
 6283SOL    HW224904   0.820   4.454   4.010  0.3924  0.3859 -1.1063
 6283SOL    HW324905   0.952   4.439   3.936  1.5498  1.6434  0.6403
 6283SOL    MW424906   0.906   4.438   4.010 -0.0382 -0.3754  0.0156
 6284SOL     OW24907   0.080   2.061   3.588 -0.2699 -0.3433 -0.7036
 6284SOL    HW224908   0.133   2.096   3.516 -0.3820  0.3580 -0.4468
 6284SOL    HW324909   0.144   2.019   3.646 -0.1414 -0.6026 -1.0295
 6284SOL    MW424910   0.096   2.060   3.586 -0.4180 -0.5327  0.2903
 6285SOL     OW24911   0.214   5.281   3.165  0.1015 -0.6241  0.7910
 6285SOL    HW224912   0.286   5.253   3.109  0.1235  3.1800 -1.4107
 6285SOL    HW324913   0.238   5.250   3.253  3.3152 -1.3364 -0.2246
 6285SOL    MW424914   0.227   5.274   3.169 -0.5417  0.7546  0.4365
 6286SOL     OW24915   4.958   4.937   5.361 -0.0121 -0.1334 -1.0992
 6286SOL    HW224916   5.012   4.858   5.361  0.6589  0.3104 -1.7303
 6286SOL    HW324917   4.869   4.905   5.375  0.5091 -0.7885  1.1908
 6286SOL    MW424918   4.954   4.922   5.363 -0.2099 -0.5219  0.3153
 6287SOL     OW24919   6.334   3.295   1.103  0.3620  0.2950 -0.2780
 6287SOL    HW224920   6.405   3.342   1.145 -0.7728  1.1919  0.6989
 6287SOL    HW324921   6.365   3.278   1.014  1.7827  0.6499  0.1328
 6287SOL    MW424922   6.347   3.299   1.097  0.1380  0.0096 -0.5866
 6288SOL     OW24923   4.685   5.810   3.033 -0.2890  0.0212 -0.0125
 6288SOL    HW224924   4.695   5.828   3.126 -0.3935  1.0499 -0.1909
 6288SOL    HW324925   4.635   5.884   2.999 -1.3479 -0.9469 -0.6598
 6288SOL    MW424926   4.680   5.822   3.041  0.1141  0.7042  0.1799
 6289SOL     OW24927   3.120   1.319   4.230  0.3027  0.1328  0.8947
 6289SOL    HW224928   3.141   1.389   4.168 -0.3204  0.0528  0.5856
 6289SOL    HW324929   3.201   1.268   4.236  0.2407 -0.1343 -0.2252
 6289SOL    MW424930   3.133   1.321   4.222 -0.5409 -0.1794 -0.2940
 6290SOL     OW24931   2.757   1.320   5.359 -0.4511 -0.1113 -0.1923
 6290SOL    HW224932   2.708   1.355   5.285  1.3028 -0.5036 -1.6206
 6290SOL    HW324933   2.765   1.395   5.419  0.2046  0.9717 -1.5652
 6290SOL    MW424934   2.752   1.335   5.358 -0.7676 -0.4508 -0.1156
 6291SOL     OW24935   2.681   0.661   5.564 -0.0113  0.2444 -0.3682
 6291SOL    HW224936   2.636   0.633   5.484 -0.0825  0.9149 -0.5747
 6291SOL    HW324937   2.619   0.641   5.635 -0.8260  1.4791 -0.6803
 6291SOL    MW424938   2.667   0.655   5.563  0.1938 -0.3877  0.7213
 6292SOL     OW24939   5.332   2.568   0.512  0.4549  0.5745  0.4876
 6292SOL    HW224940   5.378   2.616   0.443 -0.4281 -1.2913 -1.5189
 6292SOL    HW324941   5.248   2.613   0.522 -0.0475 -0.0310 -0.8158
 6292SOL    MW424942   5.327   2.580   0.504 -0.0750  0.1249  0.0050
 6293SOL     OW24943   3.581   3.176   1.065 -0.2734 -0.3593  0.5207
 6293SOL    HW224944   3.593   3.107   0.999  0.9887 -0.4805  0.8529
 6293SOL    HW324945   3.639   3.247   1.037 -0.5019  0.0038  0.9483
 6293SOL    MW424946   3.590   3.176   1.053 -0.1157 -0.4781 -0.1218
 6294SOL     OW24947   0.205   2.413   3.177 -0.2170  0.3567  0.3302
 6294SOL    HW224948   0.173   2.410   3.087  0.9963 -0.6807 -0.0990
 6294SOL    HW324949   0.300   2.403   3.169 -0.0175  0.9070  1.6921
 6294SOL    MW424950   0.214   2.412   3.164  0.3964 -0.0653  0.0051
 6295SOL     OW24951   1.430   5.102   3.463  0.2469  0.2904 -0.1182
 6295SOL    HW224952   1.437   5.099   3.367 -0.2413 -2.7691 -0.1821
 6295SOL    HW324953   1.488   5.032   3.493  0.3764  1.1798  1.8525
 6295SOL    MW424954   1.439   5.092   3.454 -0.1084  0.7831  0.1179
 6296SOL     OW24955   4.015   5.753   6.135  0.2527 -0.5950 -0.2567
 6296SOL    HW224956   4.000   5.770   6.042  0.7351  0.2542 -0.1874
 6296SOL    HW324957   4.110   5.755   6.145  0.1684  1.5870  0.6353
 6296SOL    MW424958   4.026   5.756   6.124 -0.5131 -0.5932  0.0201
 6297SOL     OW24959   4.681   2.524   5.468 -0.2923 -0.0171  0.1922
 6297SOL    HW224960   4.674   2.603   5.413 -0.1275 -0.2915 -0.2283
 6297SOL    HW324961   4.683   2.452   5.406 -0.6911 -0.3744  0.5900
 6297SOL    MW424962   4.681   2.525   5.453  0.1675 -0.2895  0.0513
 6298SOL     OW24963   5.597   3.456   4.304  0.4093 -0.5223 -0.6864
 6298SOL    HW224964   5.606   3.464   4.399  1.6565  0.8974 -0.8766
 6298SOL    HW324965   5.504   3.469   4.287  0.5092  1.8019  0.1915
 6298SOL    MW424966   5.586   3.459   4.314  0.0832 -0.4708 -0.1901
 6299SOL     OW24967   4.147   2.050   3.784 -0.0185  0.5720  0.6027
 6299SOL    HW224968   4.148   2.055   3.880  0.4921 -2.2388  0.8308
 6299SOL    HW324969   4.055   2.044   3.762 -0.0968  0.1719  1.0167
 6299SOL    MW424970   4.135   2.050   3.794 -1.1824  0.1929 -0.0659
 6300SOL     OW24971   4.330   1.097   5.072 -0.7708 -0.7969 -0.2984
 6300SOL    HW224972   4.407   1.154   5.075 -0.9908 -0.4195 -1.3930
 6300SOL    HW324973   4.346   1.039   4.998 -0.6230 -2.0714  0.7155
 6300SOL    MW424974   4.342   1.097   5.063  0.0997  0.3126  0.1931
 6301SOL     OW24975   6.406   4.042   1.266  0.2380 -0.2937  0.1874
 6301SOL    HW224976   6.474   3.977   1.287  0.0376 -0.5691 -0.0023
 6301SOL    HW324977   6.363   4.006   1.188 -1.9040 -1.4956  1.8208
 6301SOL    MW424978   6.409   4.028   1.258 -0.4757 -0.3924  0.6144
 6302SOL     OW24979   0.548   2.809   5.428 -0.0063  0.3916  0.3174
 6302SOL    HW224980   0.537   2.894   5.385 -2.0428  0.6107  1.1301
 6302SOL    HW324981   0.506   2.821   5.514  0.3408 -1.2162  0.7352
 6302SOL    MW424982   0.541   2.822   5.434 -0.2827 -0.2560 -0.3932
 6303SOL     OW24983   2.938   2.315   1.763 -0.1763 -1.1278 -0.2559
 6303SOL    HW224984   2.845   2.336   1.778 -0.6857 -2.5411 -1.2047
 6303SOL    HW324985   2.980   2.400   1.753 -1.1396 -0.4089  1.3429
 6303SOL    MW424986   2.931   2.329   1.764 -0.0662 -0.5051 -0.4334
 6304SOL     OW24987   3.766   1.275   4.465 -0.3434  0.4501  0.7128
 6304SOL    HW224988   3.817   1.272   4.384 -1.0525 -2.9075  0.2431
 6304SOL    HW324989   3.822   1.321   4.527  0.7296  2.0454 -1.3149
 6304SOL    MW424990   3.780   1.281   4.462 -0.6795  0.1271 -0.2531
 6305SOL     OW24991   2.216   3.743   2.653  0.2309  0.2581 -0.1031
 6305SOL    HW224992   2.157   3.703   2.717  0.0891  1.2360  0.3958
 6305SOL    HW324993   2.283   3.786   2.705 -0.0232  1.2728 -0.5961
 6305SOL    MW424994   2.217   3.743   2.668 -0.3969  0.1880  0.1286
 6306SOL     OW24995   2.687   0.876   2.758  0.3300 -0.4321  0.1147
 6306SOL    HW224996   2.637   0.946   2.798 -0.2664 -0.2835 -0.8557
 6306SOL    HW324997   2.775   0.912   2.747 -0.1931  0.5025 -1.1956
 6306SOL    MW424998   2.692   0.890   2.762  0.0760 -0.2553 -0.2617
 6307SOL     OW24999   5.384   1.504   3.983  0.5068  0.7171  0.2057
 6307SOL    HW225000   5.398   1.415   4.014 -1.6639 -0.5985 -2.1434
 6307SOL    HW325001   5.299   1.529   4.019 -0.8691  0.1161 -2.3444
 6307SOL    MW425002   5.374   1.496   3.992 -0.5308 -0.4053 -0.1643
 6308SOL     OW25003   1.997   0.127   3.135  0.3316  0.5178 -0.3340
 6308SOL    HW225004   1.903   0.111   3.148  0.0554  2.3792  0.3024
 6308SOL    HW325005   2.038   0.092   3.215 -0.0493  1.3083  0.2267
 6308SOL    MW425006   1.990   0.121   3.148  0.5522 -0.3135 -0.2926
 6309SOL     OW25007   0.345   5.593   5.209  0.2756  0.7565 -0.0616
 6309SOL    HW225008   0.378   5.621   5.123 -0.9779  1.7607 -0.2490
 6309SOL    HW325009   0.285   5.663   5.235  1.1257  0.7754  1.9511
 6309SOL    MW425010   0.341   5.606   5.201  0.0717 -0.5160 -0.4447
 6310SOL     OW25011   2.949   2.280   5.054 -0.1262 -0.1035  0.1020
 6310SOL    HW225012   2.932   2.272   4.960 -0.3011 -0.2577  0.1449
 6310SOL    HW325013   3.030   2.230   5.068 -0.9484 -1.4412  0.2858
 6310SOL    MW425014   2.958   2.272   5.043  0.4469 -0.1956 -0.2526
 6311SOL     OW25015   2.025   0.913   1.519  0.4493 -0.0249  0.8928
 6311SOL    HW225016   1.978   0.994   1.537 -1.3386 -1.0356  0.9721
 6311SOL    HW325017   2.048   0.879   1.606  0.5352  0.0065  0.8831
 6311SOL    MW425018   2.022   0.919   1.533  0.0586 -0.1305 -0.1869
 6312SOL     OW25019   5.799   3.949   0.880 -0.0398  0.0768  0.0097
 6312SOL    HW225020   5.731   3.883   0.866 -2.4579  2.2629  0.6524
 6312SOL    HW325021   5.831   3.969   0.792 -1.7845  0.4859 -0.5827
 6312SOL    MW425022   5.794   3.943   0.867  0.1554 -0.1319 -0.3215
 6313SOL     OW25023   0.135   4.980   6.207  0.3376  0.7898 -0.1275
 6313SOL    HW225024   0.156   4.961   6.115  1.6773 -2.5266  0.7040
 6313SOL    HW325025   0.209   5.033   6.238 -1.2493  4.0124 -1.4025
 6313SOL    MW425026   0.148   4.985   6.199 -0.5440  0.8956 -0.2663
 6314SOL     OW25027   3.628   3.155   0.240  0.2859 -0.0227  0.1679
 6314SOL    HW225028   3.613   3.181   0.149 -0.0745  0.4584  0.3578
 6314SOL    HW325029   3.629   3.059   0.238 -1.7890 -0.0852 -0.0412
 6314SOL    MW425030   3.626   3.146   0.228 -0.0196  0.4247  0.3645
 6315SOL     OW25031   1.242   0.569   4.005  0.0555  0.6481 -0.0819
 6315SOL    HW225032   1.223   0.600   3.917  1.2165 -0.4112 -0.7423
 6315SOL    HW325033   1.327   0.525   3.997 -0.3840 -0.5418  1.2929
 6315SOL    MW425034   1.251   0.567   3.992  0.0855  0.7038 -0.3813
 6316SOL     OW25035   1.687   4.035   0.780  0.5844  0.1690 -0.0384
 6316SOL    HW225036   1.659   4.126   0.779 -0.1846 -0.0629 -0.5476
 6316SOL    HW325037   1.772   4.036   0.824  0.4484  1.0889  0.2160
 6316SOL    MW425038   1.694   4.047   0.786 -0.0003 -0.1955  0.2075
 6317SOL     OW25039   4.323   3.140   4.737  0.3777  0.0901 -0.1712
 6317SOL    HW225040   4.324   3.054   4.696  2.4036 -0.4804  0.9585
 6317SOL    HW325041   4.368   3.197   4.674 -0.1079  0.1275 -0.4909
 6317SOL    MW425042   4.329   3.136   4.723  0.0089  0.1421  0.4794
 6318SOL     OW25043   0.995   2.676   1.352 -0.3935  0.3602  0.6288
 6318SOL    HW225044   1.018   2.691   1.444  0.4564 -0.2208  0.5273
 6318SOL    HW325045   1.074   2.700   1.303 -1.0104  1.1660 -0.0040
 6318SOL    MW425046   1.008   2.681   1.357 -0.7174  0.4041  0.0177
 6319SOL     OW25047   1.804   4.218   5.998  0.3401  0.4396 -0.2378
 6319SOL    HW225048   1.800   4.122   6.004 -1.3216  0.5128  0.4714
 6319SOL    HW325049   1.772   4.249   6.083  0.8968  1.6416 -0.4409
 6319SOL    MW425050   1.799   4.209   6.010  0.0995 -0.2059 -0.6219
 6320SOL     OW25051   2.837   3.641   2.330  0.3158  0.5780 -0.6759
 6320SOL    HW225052   2.824   3.733   2.354  0.5319  0.6906 -0.9828
 6320SOL    HW325053   2.895   3.644   2.254 -1.4994  0.3073 -2.1391
 6320SOL    MW425054   2.843   3.654   2.323 -0.0130  0.0657  0.0805
 6321SOL     OW25055   1.271   1.332   2.222 -0.4476  0.9782  0.0036
 6321SOL    HW225056   1.254   1.266   2.154  1.6446 -0.3520  0.6464
 6321SOL    HW325057   1.269   1.415   2.176  0.1634  0.1665 -1.5641
 6321SOL    MW425058   1.269   1.334   2.207  0.2416  0.2717  0.0274
 6322SOL     OW25059   3.799   0.885   1.197  0.4778  0.2281  0.6181
 6322SOL    HW225060   3.832   0.910   1.111  1.0524  0.0644  0.7910
 6322SOL    HW325061   3.738   0.814   1.180  0.0605  0.6620  0.2796
 6322SOL    MW425062   3.795   0.879   1.183  0.1731  0.2210 -0.4680
 6323SOL     OW25063   4.528   0.492   4.516 -0.2025 -0.1134 -0.5601
 6323SOL    HW225064   4.578   0.410   4.522 -0.3139 -0.0876  2.1291
 6323SOL    HW325065   4.591   0.560   4.542 -0.9742  0.1887  0.6114
 6323SOL    MW425066   4.543   0.490   4.520 -0.1499  0.0078 -0.3483
 6324SOL     OW25067   0.167   0.744   4.698 -0.2516 -0.0613 -0.0005
 6324SOL    HW225068   0.159   0.649   4.704  0.6445 -0.1374  0.1381
 6324SOL    HW325069   0.085   0.777   4.735  0.4954 -0.7391  2.4939
 6324SOL    MW425070   0.155   0.736   4.704 -0.5680 -0.1787 -0.8303
 6325SOL     OW25071   5.860   4.337   3.671  0.1811  0.0622  0.1174
 6325SOL    HW225072   5.769   4.356   3.695  0.6648  0.4903  1.6971
 6325SOL    HW325073   5.877   4.395   3.597 -0.7563  0.1487 -0.0439
 6325SOL    MW425074   5.850   4.347   3.664  0.5378  0.3354  0.0440
 6326SOL     OW25075   1.893   1.805   3.334  0.0343  0.0937 -0.2025
 6326SOL    HW225076   1.839   1.726   3.341  1.0124 -0.8148 -2.2180
 6326SOL    HW325077   1.834   1.876   3.358 -1.4406 -1.0472 -0.2617
 6326SOL    MW425078   1.878   1.804   3.338  0.0906  0.1141  0.1097
 6327SOL     OW25079   4.156   0.709   5.229 -0.1284  0.2234  0.3322
 6327SOL    HW225080   4.243   0.749   5.230  0.5842 -1.2419 -0.5481
 6327SOL    HW325081   4.157   0.647   5.302 -0.8903  1.0703  1.0886
 6327SOL    MW425082   4.168   0.706   5.239 -0.0915  0.1593  1.1693
 6328SOL     OW25083   2.610   0.449   3.534  0.4828 -1.0717  0.1965
 6328SOL    HW225084   2.640   0.392   3.463  1.9500  1.1292 -1.0714
 6328SOL    HW325085   2.688   0.465   3.586  0.4060  0.7166 -0.1969
 6328SOL    MW425086   2.624   0.443   3.531 -0.6269 -0.2959  0.1304
 6329SOL     OW25087   4.781   2.854   1.209 -0.1528 -0.3732  0.0797
 6329SOL    HW225088   4.700   2.810   1.185  0.9849 -2.1156 -0.8197
 6329SOL    HW325089   4.774   2.868   1.303 -0.4259 -3.0133  0.5480
 6329SOL    MW425090   4.769   2.850   1.218  0.7502 -0.6051  0.2427
 6330SOL     OW25091   2.796   0.302   1.015 -0.3959  0.3253 -0.1723
 6330SOL    HW225092   2.882   0.335   0.991  0.1891 -0.0101  1.3347
 6330SOL    HW325093   2.797   0.211   0.988 -0.3083  0.3462 -0.2395
 6330SOL    MW425094   2.807   0.295   1.008 -0.8411  0.4245  0.1148
 6331SOL     OW25095   3.252   0.863   0.939  0.1296  0.7107  0.0351
 6331SOL    HW225096   3.269   0.951   0.906  1.4972  0.2898 -0.4503
 6331SOL    HW325097   3.300   0.806   0.880  4.4074 -0.0082  3.6831
 6331SOL    MW425098   3.260   0.867   0.927 -0.4789 -0.5405 -0.3513
 6332SOL     OW25099   4.048   0.129   1.966 -0.4185  0.0952 -0.0848
 6332SOL    HW225100   4.058   0.135   1.871  0.5246  1.4556  0.0651
 6332SOL    HW325101   4.025   0.218   1.993 -3.1102 -0.7512  0.7457
 6332SOL    MW425102   4.046   0.142   1.957 -0.1952 -0.4054  0.2173
 6333SOL     OW25103   1.449   0.830   4.721 -0.4292  0.4103  0.3112
 6333SOL    HW225104   1.414   0.918   4.733  0.0353  1.0725 -2.5816
 6333SOL    HW325105   1.544   0.841   4.724 -0.3484 -0.3574  1.8070
 6333SOL    MW425106   1.457   0.843   4.723 -0.1856  0.5785  0.1486
 6334SOL     OW25107   0.703   1.614   0.156 -0.1444 -0.2580  0.8134
 6334SOL    HW225108   0.683   1.706   0.138  0.1675 -0.3752 -0.1581
 6334SOL    HW325109   0.793   1.615   0.188 -0.4770 -0.1274  1.8016
 6334SOL    MW425110   0.712   1.626   0.158 -0.3592 -0.1150  0.6946
 6335SOL     OW25111   4.977   2.270   1.386  0.1496 -0.1983  0.0887
 6335SOL    HW225112   4.954   2.349   1.337  0.6699  0.2032  0.4834
 6335SOL    HW325113   5.025   2.302   1.462 -1.4831 -0.7344  1.4053
 6335SOL    MW425114   4.981   2.285   1.390  0.0131 -0.1940 -0.5302
 6336SOL     OW25115   6.009   4.497   4.243  0.3627  0.5347  0.0930
 6336SOL    HW225116   6.016   4.564   4.175  0.1503  0.1069 -0.3572
 6336SOL    HW325117   5.928   4.518   4.289  0.2803  0.5759 -0.0679
 6336SOL    MW425118   5.999   4.509   4.240 -0.2058  0.0119 -0.4526
 6337SOL     OW25119   5.562   1.491   2.819 -0.2311 -0.5672  0.4836
 6337SOL    HW225120   5.624   1.550   2.861 -2.0416  0.4609  1.8325
 6337SOL    HW325121   5.499   1.468   2.888 -2.1949 -0.3737 -1.1396
 6337SOL    MW425122   5.562   1.496   2.834 -0.0567  0.5567  0.4789
 6338SOL     OW25123   4.233   4.644   0.810  0.1251 -0.3740  0.4049
 6338SOL    HW225124   4.273   4.566   0.847 -2.9286 -2.4016 -0.1730
 6338SOL    HW325125   4.156   4.660   0.865 -0.3910  1.0391 -0.6643
 6338SOL    MW425126   4.228   4.636   0.822  0.0249 -0.2243 -0.6960
 6339SOL     OW25127   5.597   5.243   0.537  0.0066  0.1496  0.2556
 6339SOL    HW225128   5.601   5.156   0.497 -0.3039  1.2186 -2.2401
 6339SOL    HW325129   5.519   5.240   0.592 -0.7964 -0.7328 -0.8904
 6339SOL    MW425130   5.587   5.231   0.539 -0.5250  0.3760 -0.1480
 6340SOL     OW25131   0.642   5.659   5.696 -0.5703 -0.5666 -0.0717
 6340SOL    HW225132   0.732   5.632   5.677 -0.9577 -3.3802  1.4196
 6340SOL    HW325133   0.595   5.646   5.613 -0.0614 -1.5218 -0.2274
 6340SOL    MW425134   0.647   5.653   5.682 -0.9376  0.5042 -0.3010
 6341SOL     OW25135   1.062   4.942   3.760  0.1094 -0.1135  0.3629
 6341SOL    HW225136   1.006   4.902   3.826  0.9330  0.4500  1.4241
 6341SOL    HW325137   1.007   4.947   3.682 -1.0406 -0.3522  1.1362
 6341SOL    MW425138   1.047   4.938   3.758 -0.0949  0.2152  0.2452
 6342SOL     OW25139   4.915   1.169   4.025  0.7973 -0.3119  0.4025
 6342SOL    HW225140   5.006   1.190   4.050  0.6370  0.3351  0.4586
 6342SOL    HW325141   4.921   1.083   3.982  1.4122 -0.3494  0.5507
 6342SOL    MW425142   4.928   1.160   4.023 -0.0046 -0.0171  0.7645
 6343SOL     OW25143   5.541   5.904   3.477 -0.3247  0.2084 -0.7395
 6343SOL    HW225144   5.544   5.810   3.462 -2.0244  0.2879 -1.9452
 6343SOL    HW325145   5.504   5.914   3.564  0.9043 -0.2205 -0.1467
 6343SOL    MW425146   5.537   5.893   3.486 -0.1220  0.1435  0.4722
 6344SOL     OW25147   2.521   2.150   0.016  0.3954  0.3265  0.2973
 6344SOL    HW225148   2.486   2.110  -0.064  1.7671 -1.3153  0.4594
 6344SOL    HW325149   2.587   2.212  -0.016  1.1723 -0.5586  0.1185
 6344SOL    MW425150   2.525   2.153   0.001  0.7061 -0.3908 -0.2621
 6345SOL     OW25151   0.443   0.574   0.208 -0.1518  1.1033  0.3595
 6345SOL    HW225152   0.494   0.516   0.263 -0.7013  0.5730  0.3192
 6345SOL    HW325153   0.500   0.593   0.133  1.1416  2.9542  1.7384
 6345SOL    MW425154   0.457   0.569   0.205  0.5049 -0.0224  0.2047
 6346SOL     OW25155   2.074   4.485   5.485 -0.2536  0.1120  0.2920
 6346SOL    HW225156   2.056   4.481   5.391 -0.4988  0.4633  0.3192
 6346SOL    HW325157   2.164   4.453   5.494  0.0019  0.6915 -0.1366
 6346SOL    MW425158   2.083   4.480   5.473  0.0772 -0.1376 -0.0225
 6347SOL     OW25159   0.425   4.543   5.860 -0.8764 -0.0168 -0.0987
 6347SOL    HW225160   0.471   4.602   5.919  0.1426 -1.3577  0.5171
 6347SOL    HW325161   0.436   4.581   5.773 -1.4867  1.4235  0.4194
 6347SOL    MW425162   0.432   4.556   5.856 -0.2783 -0.4974 -0.0482
 6348SOL     OW25163   3.192   0.898   3.613  0.4132  0.5199  0.8279
 6348SOL    HW225164   3.278   0.898   3.571  0.3810  1.8459  0.7148
 6348SOL    HW325165   3.131   0.877   3.543  0.4961  1.2682  0.5273
 6348SOL    MW425166   3.196   0.895   3.598  0.4226  0.3252 -0.3701
 6349SOL     OW25167   3.793   4.278   0.193  0.0259  0.2817  0.1019
 6349SOL    HW225168   3.774   4.198   0.242  0.6359  0.8363  1.2862
 6349SOL    HW325169   3.746   4.268   0.110 -2.7504  0.2170  1.5856
 6349SOL    MW425170   3.784   4.266   0.189 -0.2190  0.8044  0.1249
 6350SOL     OW25171   5.814   1.134   2.655  0.0046  0.0167 -0.0389
 6350SOL    HW225172   5.809   1.228   2.642 -2.8000  0.0307  0.4403
 6350SOL    HW325173   5.894   1.107   2.610  1.4418  2.7155  0.6982
 6350SOL    MW425174   5.824   1.143   2.647  0.1362 -0.4120 -0.5045
 6351SOL     OW25175   3.893   5.076   2.122 -0.0754 -0.3604 -0.4215
 6351SOL    HW225176   3.816   5.134   2.120  0.9426  1.0272 -0.6792
 6351SOL    HW325177   3.919   5.074   2.214 -1.8031 -2.8100  0.1171
 6351SOL    MW425178   3.886   5.083   2.134  0.3605  0.1786 -0.0225
 6352SOL     OW25179   5.016   3.248   1.100  0.2580  0.5011  0.0244
 6352SOL    HW225180   5.043   3.166   1.141  1.2743  0.3555 -0.8790
 6352SOL    HW325181   5.043   3.316   1.162  0.2593  0.2057  0.3532
 6352SOL    MW425182   5.023   3.246   1.114  0.0422 -0.2427  0.2110
 6353SOL     OW25183   6.144   5.762   1.337  0.8638  0.5413  0.3360
 6353SOL    HW225184   6.108   5.676   1.359  1.8084  0.2851  0.9634
 6353SOL    HW325185   6.131   5.771   1.243 -0.3502  0.2482  0.4540
 6353SOL    MW425186   6.137   5.752   1.328 -0.1331 -0.9827 -0.0743
 6354SOL     OW25187   3.319   0.250   0.919 -0.6190 -0.3095 -0.2646
 6354SOL    HW225188   3.274   0.185   0.973  0.3871 -1.0056 -0.2476
 6354SOL    HW325189   3.320   0.213   0.831  1.1477 -0.9721 -0.0008
 6354SOL    MW425190   3.313   0.237   0.914  0.0583  0.0034  0.5890
 6355SOL     OW25191   0.479   3.057   5.330  0.6203  0.3220  0.2081
 6355SOL    HW225192   0.465   3.103   5.413 -0.6920  0.7187 -0.1983
 6355SOL    HW325193   0.523   3.120   5.274  3.2440 -0.5613  1.1492
 6355SOL    MW425194   0.483   3.071   5.334 -0.1007 -0.0696 -0.5730
 6356SOL     OW25195   6.103   5.018   0.280 -0.2859  0.5043  0.5659
 6356SOL    HW225196   6.100   4.936   0.230 -0.7668  0.3795  0.7910
 6356SOL    HW325197   6.018   5.021   0.325 -0.7842  1.7565 -0.4168
 6356SOL    MW425198   6.091   5.007   0.280  0.5120  0.1158 -0.1240
 6357SOL     OW25199   3.354   5.818   5.484  0.5413  0.3342 -0.5550
 6357SOL    HW225200   3.314   5.731   5.484  1.0687  0.0849 -0.8074
 6357SOL    HW325201   3.411   5.818   5.561  2.0338 -0.2585 -1.6240
 6357SOL    MW425202   3.356   5.807   5.495  0.2787  0.2842  0.4134
 6358SOL     OW25203   1.156   4.334   3.336  0.1670  0.0981  0.0776
 6358SOL    HW225204   1.126   4.424   3.352 -0.6070 -0.2604  0.7145
 6358SOL    HW325205   1.097   4.280   3.388  1.1856 -0.7207  0.4195
 6358SOL    MW425206   1.145   4.339   3.345  0.0331 -0.4101  0.0412
 6359SOL     OW25207   4.805   3.475   1.859 -0.2887  0.2401  0.0328
 6359SOL    HW225208   4.777   3.446   1.945  0.0898  0.5098  0.2519
 6359SOL    HW325209   4.785   3.402   1.800  2.3655 -1.3101  0.8645
 6359SOL    MW425210   4.799   3.462   1.862  0.0814  0.0349  0.6795
 6360SOL     OW25211   5.823   0.911   3.551  0.2300 -0.2781 -0.4573
 6360SOL    HW225212   5.872   0.985   3.515  1.3303 -0.9994 -0.4823
 6360SOL    HW325213   5.828   0.843   3.484 -1.2486 -0.2105 -0.6687
 6360SOL    MW425214   5.830   0.912   3.538  1.0435 -0.0546  0.0157
 6361SOL     OW25215   4.702   0.473   5.380 -0.0542 -0.1158  0.2173
 6361SOL    HW225216   4.745   0.539   5.326  1.9898 -2.6127 -1.4660
 6361SOL    HW325217   4.632   0.438   5.324 -1.5631  0.9610  1.3418
 6361SOL    MW425218   4.698   0.477   5.365 -0.4046 -0.1695  0.2175
 6362SOL     OW25219   1.646   3.656   5.585 -0.3026  0.3015 -1.1396
 6362SOL    HW225220   1.682   3.722   5.526 -0.1799  0.9670 -0.3394
 6362SOL    HW325221   1.551   3.664   5.575 -0.3135  1.1300 -0.4975
 6362SOL    MW425222   1.639   3.666   5.576 -0.4793  0.5722  0.2896
 6363SOL     OW25223   0.758   3.001   3.252 -0.2507  0.0096 -0.0476
 6363SOL    HW225224   0.749   3.096   3.255  3.4988  0.5803 -1.6907
 6363SOL    HW325225   0.670   2.968   3.272 -1.6541  3.7513  0.7557
 6363SOL    MW425226   0.745   3.009   3.255  0.6013  0.1432 -0.1170
 6364SOL     OW25227   1.168   4.890   0.252  0.1284 -0.4747 -0.4356
 6364SOL    HW225228   1.072   4.894   0.254  0.1119 -0.3803 -1.2437
 6364SOL    HW325229   1.189   4.838   0.175  0.6823 -3.3954  1.5048
 6364SOL    MW425230   1.158   4.884   0.242  0.4227  0.3300 -0.3426
 6365SOL     OW25231   0.166   2.683   3.230  0.1466 -0.3004  0.2151
 6365SOL    HW225232   0.177   2.588   3.224  1.9603 -0.1897  0.9702
 6365SOL    HW325233   0.149   2.712   3.141  1.0337 -1.2054 -0.2672
 6365SOL    MW425234   0.165   2.674   3.218  0.4631  0.4615 -0.0445
 6366SOL     OW25235   2.903   6.230   0.894 -0.1294 -0.4475 -0.1985
 6366SOL    HW225236   2.865   6.311   0.928  2.1088  0.7815 -0.4092
 6366SOL    HW325237   2.963   6.260   0.825 -0.4824 -2.4488 -1.4557
 6366SOL    MW425238   2.906   6.245   0.889 -0.2864 -0.3310 -0.1791
 6367SOL     OW25239   4.901   2.551   4.830 -0.6732 -0.0308 -0.5341
 6367SOL    HW225240   4.897   2.498   4.751 -0.7305  0.2469 -0.7153
 6367SOL    HW325241   4.839   2.622   4.816  0.4266  0.8861 -0.8773
 6367SOL    MW425242   4.892   2.553   4.818 -0.1297 -0.0720  0.1639
 6368SOL     OW25243   3.523   6.069   4.354  0.2942  0.0211 -0.3065
 6368SOL    HW225244   3.503   6.156   4.387 -0.1284  0.1355 -0.8402
 6368SOL    HW325245   3.471   6.009   4.408  0.1129  0.1524 -0.3355
 6368SOL    MW425246   3.513   6.072   4.365  0.1857  0.8634  0.3903
 6369SOL     OW25247   4.088   2.928   5.543 -0.6319  0.1293 -0.3010
 6369SOL    HW225248   4.067   2.889   5.627  0.1708  2.2211  0.9576
 6369SOL    HW325249   4.176   2.895   5.522  0.0971  1.2559  0.8159
 6369SOL    MW425250   4.097   2.918   5.551  0.5266  0.0972  0.0930
 6370SOL     OW25251   1.861   2.245   0.860  0.3571  0.8966 -0.3866
 6370SOL    HW225252   1.783   2.200   0.891  1.0761  0.3451  0.6678
 6370SOL    HW325253   1.924   2.239   0.932  2.1066 -0.4290 -1.9139
 6370SOL    MW425254   1.859   2.239   0.873 -0.1929  0.1793  0.2903
 6371SOL     OW25255   0.579   4.004   4.696 -0.3634 -0.1091 -0.4334
 6371SOL    HW225256   0.611   3.990   4.785 -0.0634  2.4868 -0.0451
 6371SOL    HW325257   0.653   3.981   4.640 -0.4379 -1.4285 -0.0169
 6371SOL    MW425258   0.593   3.999   4.701  0.6142  0.6727  0.1516
 6372SOL     OW25259   4.138   5.076   0.947  0.0168  0.1528 -0.1704
 6372SOL    HW225260   4.075   5.033   1.005 -0.0063  0.0253 -0.2899
 6372SOL    HW325261   4.092   5.082   0.863 -0.5281  1.6801  0.1916
 6372SOL    MW425262   4.123   5.072   0.943  0.2405  0.0220  0.0137
 6373SOL     OW25263   2.165   3.353   4.844  0.5103  0.1135  0.0988
 6373SOL    HW225264   2.085   3.367   4.894  0.0744 -2.1628  0.1122
 6373SOL    HW325265   2.150   3.399   4.762  0.8459  3.0844  1.5563
 6373SOL    MW425266   2.153   3.361   4.840  0.0877 -0.3381  0.1769
 6374SOL     OW25267   2.934   1.848   3.085 -0.6546 -0.2001  0.1369
 6374SOL    HW225268   3.028   1.853   3.097 -0.5684  1.8191 -0.9316
 6374SOL    HW325269   2.922   1.848   2.989 -1.7215 -1.7787  0.2159
 6374SOL    MW425270   2.945   1.848   3.074 -0.0008 -0.1695  0.1278
 6375SOL     OW25271   3.842   3.872   6.154 -0.4510  0.1045  0.1051
 6375SOL    HW225272   3.857   3.797   6.097 -0.7672 -1.7809  2.3643
 6375SOL    HW325273   3.920   3.927   6.141  0.5299 -1.3572 -0.4955
 6375SOL    MW425274   3.854   3.870   6.145 -0.4788  0.0220  0.2352
 6376SOL     OW25275   3.824   5.784   6.393  0.4932  0.1372  0.3629
 6376SOL    HW225276   3.907   5.813   6.430 -0.1973  0.5735  1.6657
 6376SOL    HW325277   3.838   5.781   6.299  1.2183  2.7469  0.3371
 6376SOL    MW425278   3.837   5.787   6.386 -0.6551  0.0141  0.1413
 6377SOL     OW25279   4.001   0.407   3.589  0.1130  0.2409  0.4612
 6377SOL    HW225280   4.088   0.415   3.550 -0.0098  1.5653  0.4118
 6377SOL    HW325281   4.012   0.341   3.658  0.8176 -0.6076 -0.4337
 6377SOL    MW425282   4.014   0.399   3.593 -0.3662 -0.6109 -0.1195
 6378SOL     OW25283   1.890   0.952   3.748 -0.6006 -0.4714  0.5775
 6378SOL    HW225284   1.878   0.858   3.760  0.1765 -0.3593  2.6152
 6378SOL    HW325285   1.948   0.978   3.820  1.2227  1.1663 -1.3704
 6378SOL    MW425286   1.896   0.943   3.759  0.2317 -0.0760 -0.2604
 6379SOL     OW25287   2.333   3.684   1.319  0.0516  0.3537 -0.2943
 6379SOL    HW225288   2.248   3.716   1.348  0.2460  1.5109 -0.9539
 6379SOL    HW325289   2.328   3.685   1.223  0.7183  0.1689 -0.3404
 6379SOL    MW425290   2.321   3.688   1.310  0.7705  0.4262  0.5960
 6380SOL     OW25291   0.666   6.258   2.030  0.4491 -0.0846 -0.2229
 6380SOL    HW225292   0.696   6.269   1.940  1.0576 -1.2722 -0.1849
 6380SOL    HW325293   0.713   6.181   2.062 -1.5211 -1.1270  0.3350
 6380SOL    MW425294   0.676   6.249   2.022 -0.1066  0.2110 -0.1011
 6381SOL     OW25295   5.487   5.758   2.360 -0.0099  0.7447 -0.4631
 6381SOL    HW225296   5.401   5.725   2.334  0.0839 -0.1644  0.3123
 6381SOL    HW325297   5.470   5.847   2.390 -0.2825  1.4391 -2.5236
 6381SOL    MW425298   5.473   5.765   2.361 -0.0804 -0.1965 -0.6600
 6382SOL     OW25299   1.556   4.185   2.837 -0.1308 -0.3240 -0.0082
 6382SOL    HW225300   1.554   4.158   2.929 -0.5356 -1.3702 -0.3106
 6382SOL    HW325301   1.636   4.144   2.802  1.4690  2.1581  0.4572
 6382SOL    MW425302   1.566   4.176   2.844  0.0949  0.0514 -0.4557
 6383SOL     OW25303   5.083   6.111   0.792 -0.2408  0.4531  0.2028
 6383SOL    HW225304   5.005   6.057   0.802  0.0199 -0.4840 -2.1498
 6383SOL    HW325305   5.082   6.138   0.700  1.4584  1.6110  0.4736
 6383SOL    MW425306   5.073   6.107   0.781 -1.0150  0.0823 -0.0296
 6384SOL     OW25307   5.524   4.928   2.213 -0.3158 -0.1571  0.1643
 6384SOL    HW225308   5.605   4.923   2.264 -0.2773  2.6834  0.5909
 6384SOL    HW325309   5.459   4.882   2.265  0.2188  0.8073  1.7653
 6384SOL    MW425310   5.526   4.922   2.226  0.0259  0.3430  0.0839
 6385SOL     OW25311   4.147   3.251   6.171  0.1809  0.2677 -0.1506
 6385SOL    HW225312   4.078   3.259   6.236 -0.6596 -4.3052 -0.1299
 6385SOL    HW325313   4.104   3.268   6.087 -0.3916 -0.1657  0.0507
 6385SOL    MW425314   4.132   3.254   6.168  0.2188 -0.1650 -0.1571
 6386SOL     OW25315   2.947   3.163   5.547 -0.1172  0.3751 -0.6649
 6386SOL    HW225316   2.867   3.132   5.590 -0.0608  3.0260  1.6745
 6386SOL    HW325317   3.015   3.102   5.576 -1.2243 -2.3096 -3.2058
 6386SOL    MW425318   2.945   3.151   5.557 -0.4181  0.0655  0.2391
 6387SOL     OW25319   4.091   1.260   3.592  0.3044  0.0684 -0.3000
 6387SOL    HW225320   4.168   1.264   3.535 -0.4271 -0.4144 -1.3646
 6387SOL    HW325321   4.066   1.167   3.591  1.3953 -0.3227  2.3799
 6387SOL    MW425322   4.098   1.248   3.584 -0.4139  0.1007  0.1248
 6388SOL     OW25323   4.758   2.181   4.238 -0.6035 -0.3027  0.0363
 6388SOL    HW225324   4.694   2.125   4.195 -1.0230 -0.2201  0.5429
 6388SOL    HW325325   4.780   2.247   4.172 -0.0472 -1.0941 -0.5856
 6388SOL    MW425326   4.753   2.183   4.224 -0.3449  0.1907 -0.2890
 6389SOL     OW25327   3.546   2.937   2.893 -0.1497 -0.1543  0.4674
 6389SOL    HW225328   3.638   2.919   2.871  0.0136  2.1819 -1.1152
 6389SOL    HW325329   3.549   3.018   2.944 -1.2865 -0.6757  1.4021
 6389SOL    MW425330   3.559   2.945   2.897  0.1155  0.4522  0.2248
 6390SOL     OW25331   4.895   3.470   3.046  0.3056  0.0871  0.4068
 6390SOL    HW225332   4.858   3.430   2.967 -2.0663  0.1546  1.4224
 6390SOL    HW325333   4.987   3.487   3.023  0.7176 -3.2710 -1.0516
 6390SOL    MW425334   4.902   3.467   3.032 -0.1149  0.9879 -0.2127
 6391SOL     OW25335   5.712   2.954   2.926 -0.4774 -0.4893  0.5152
 6391SOL    HW225336   5.791   2.903   2.944  0.1995  0.7291  1.1045
 6391SOL    HW325337   5.647   2.922   2.989 -0.5759 -1.7147 -0.1811
 6391SOL    MW425338   5.713   2.943   2.937 -1.1774 -0.3484 -0.2755
 6392SOL     OW25339   2.399   3.789   3.576 -0.6401 -0.4234 -0.1597
 6392SOL    HW225340   2.333   3.794   3.507  0.4369  0.4084 -1.1715
 6392SOL    HW325341   2.468   3.733   3.540  1.3204  2.3554 -1.0441
 6392SOL    MW425342   2.399   3.782   3.562 -0.2939  0.0942 -0.2503
 6393SOL     OW25343   4.387   0.981   6.233 -0.0782 -0.1707 -0.2180
 6393SOL    HW225344   4.468   1.009   6.190  0.9726  1.7734  2.6566
 6393SOL    HW325345   4.319   0.993   6.167  1.9638 -2.7573 -3.0596
 6393SOL    MW425346   4.389   0.987   6.219  0.0220  0.3897  0.7007
 6394SOL     OW25347   3.218   3.571   6.180 -0.1717 -0.4480  0.1662
 6394SOL    HW225348   3.277   3.511   6.136 -1.1038 -1.4964  0.2814
 6394SOL    HW325349   3.249   3.658   6.157  0.5067 -0.9754 -0.9758
 6394SOL    MW425350   3.230   3.575   6.171  0.4299 -0.2397  0.0120
 6395SOL     OW25351   5.274   2.402   3.909 -0.5066  0.4020 -0.3129
 6395SOL    HW225352   5.276   2.318   3.865 -0.6466  1.8599 -3.3510
 6395SOL    HW325353   5.365   2.433   3.908 -0.7608  1.1509 -1.0597
 6395SOL    MW425354   5.287   2.395   3.903 -0.2252 -0.6437 -0.1041
 6396SOL     OW25355   3.633   1.296   0.887 -0.6695 -0.4177  0.1937
 6396SOL    HW225356   3.689   1.308   0.964 -2.7471 -1.3009  1.9596
 6396SOL    HW325357   3.692   1.267   0.818  1.5439  1.9388  0.9354
 6396SOL    MW425358   3.648   1.294   0.888 -0.3459  0.2400  0.4818
 6397SOL     OW25359   5.977   5.724   0.111  0.0210 -0.3934 -0.4346
 6397SOL    HW225360   5.922   5.746   0.186 -0.9321 -0.5410 -1.0795
 6397SOL    HW325361   5.916   5.715   0.038  1.0618  1.2144 -1.5655
 6397SOL    MW425362   5.962   5.726   0.111 -0.2977 -0.0112 -0.4222
 6398SOL     OW25363   1.803   0.096   0.559 -0.3119  0.0246  0.1493
 6398SOL    HW225364   1.764   0.083   0.645  1.6167 -0.6802  0.9550
 6398SOL    HW325365   1.861   0.021   0.546  1.3660  1.3722 -0.6413
 6398SOL    MW425366   1.805   0.085   0.568 -0.0799  0.2180 -0.2010
 6399SOL     OW25367   5.167   2.539   6.048  0.2352 -0.0826  0.1905
 6399SOL    HW225368   5.110   2.615   6.058  1.6482  1.0903 -0.1720
 6399SOL    HW325369   5.177   2.504   6.137 -0.4342  0.1474  0.3565
 6399SOL    MW425370   5.161   2.544   6.061  0.3233  0.4628 -0.1791
 6400SOL     OW25371   1.763   4.512   2.210 -0.0526 -0.7230  0.0806
 6400SOL    HW225372   1.703   4.555   2.271  0.1661 -0.3958  0.0676
 6400SOL    HW325373   1.710   4.493   2.133 -0.0256  0.0212 -0.1317
 6400SOL    MW425374   1.748   4.515   2.208  0.0812 -0.2703 -0.1294
 6401SOL     OW25375   1.108   1.134   3.414  0.2704 -0.0374  0.0489
 6401SOL    HW225376   1.170   1.120   3.342 -1.0462  0.3135 -1.1841
 6401SOL    HW325377   1.132   1.068   3.479  2.1899  0.3480 -0.1937
 6401SOL    MW425378   1.119   1.124   3.413  0.6109 -0.0568  0.3980
 6402SOL     OW25379   3.978   3.780   2.245  0.2451  0.0069 -0.2017
 6402SOL    HW225380   3.932   3.707   2.287  0.7442  0.3893  1.0542
 6402SOL    HW325381   4.066   3.746   2.226  0.6166  0.3925  0.7741
 6402SOL    MW425382   3.984   3.766   2.248 -0.1794  0.3530  0.4043
 6403SOL     OW25383   6.213   1.789   0.717 -0.0232 -0.5378 -0.0913
 6403SOL    HW225384   6.159   1.856   0.759 -1.0145 -0.5681 -1.2709
 6403SOL    HW325385   6.301   1.827   0.715 -0.1164 -0.1967  1.2171
 6403SOL    MW425386   6.218   1.803   0.723 -0.0532  0.3053 -0.5673
 6404SOL     OW25387   1.871   5.847   3.179 -0.3573 -0.0097  0.1490
 6404SOL    HW225388   1.932   5.788   3.225 -0.5244  0.4612  0.9953
 6404SOL    HW325389   1.928   5.910   3.134 -0.1194 -1.6000 -1.9222
 6404SOL    MW425390   1.887   5.847   3.179  0.4526  0.8349  0.5480
 6405SOL     OW25391   4.367   2.032   0.999  0.4296 -0.1868  0.3675
 6405SOL    HW225392   4.432   2.088   1.041 -2.9529  3.0131  1.8494
 6405SOL    HW325393   4.323   1.987   1.071  0.2663 -1.4824 -0.5073
 6405SOL    MW425394   4.370   2.033   1.014  0.0058 -0.1332  0.2629
 6406SOL     OW25395   4.436   3.985   1.581 -0.1263  0.1518  0.1286
 6406SOL    HW225396   4.420   3.891   1.579 -1.2668  0.3309 -0.5077
 6406SOL    HW325397   4.477   4.002   1.666  0.0487 -0.9055  0.2601
 6406SOL    MW425398   4.439   3.975   1.592  0.2381 -0.3730  0.0568
 6407SOL     OW25399   2.366   5.448   4.707  0.0841 -0.0592  0.3261
 6407SOL    HW225400   2.437   5.383   4.713 -0.0129 -0.1721  0.2613
 6407SOL    HW325401   2.289   5.402   4.739 -0.0709 -0.1073 -0.1025
 6407SOL    MW425402   2.365   5.433   4.712  0.3424 -0.4299  0.2021
 6408SOL     OW25403   1.842   2.326   5.697 -0.0527 -0.2371  0.5470
 6408SOL    HW225404   1.801   2.333   5.783  0.6875 -0.0727  0.8985
 6408SOL    HW325405   1.915   2.388   5.700 -0.6570  0.5643 -0.5905
 6408SOL    MW425406   1.846   2.335   5.709  0.2202  0.4851  0.5498
 6409SOL     OW25407   1.059   5.943   0.790  0.0005  0.1410  0.7035
 6409SOL    HW225408   1.070   5.855   0.824 -0.5132  1.1026  3.6016
 6409SOL    HW325409   0.989   5.982   0.842  0.1602  2.2599 -0.5084
 6409SOL    MW425410   1.051   5.937   0.801  0.5005  0.2130  0.7580
 6410SOL     OW25411   6.032   3.876   4.672  0.0352 -0.9810 -0.2801
 6410SOL    HW225412   6.008   3.889   4.764 -0.2723 -2.7377 -0.0736
 6410SOL    HW325413   5.982   3.942   4.625  0.7029  0.3906  0.8467
 6410SOL    MW425414   6.022   3.886   4.678  0.4716 -0.7246  0.2662
 6411SOL     OW25415   1.828   5.390   4.603 -0.0335 -0.1893  0.0328
 6411SOL    HW225416   1.749   5.432   4.569  0.2174  0.5424  0.3411
 6411SOL    HW325417   1.796   5.313   4.651 -0.6741  0.8173  1.2672
 6411SOL    MW425418   1.814   5.385   4.605 -0.1065  0.1166 -0.3849
 6412SOL     OW25419   1.085   2.432   4.035 -0.0981 -0.0195 -0.3301
 6412SOL    HW225420   1.154   2.375   4.070  0.0360  1.2656  1.6370
 6412SOL    HW325421   1.095   2.426   3.940  3.8381  1.3063 -0.1859
 6412SOL    MW425422   1.096   2.424   4.027 -0.2218  0.0436 -0.1516
 6413SOL     OW25423   3.244   6.330   5.016  0.3370 -0.1333  0.0427
 6413SOL    HW225424   3.287   6.387   5.079  1.5384 -0.9921  0.0264
 6413SOL    HW325425   3.243   6.244   5.058  0.8345 -0.6361 -0.9507
 6413SOL    MW425426   3.249   6.327   5.030  0.0645 -0.0665 -0.2789
 6414SOL     OW25427   4.749   2.407   3.053 -0.5181 -0.1861  0.5694
 6414SOL    HW225428   4.699   2.460   3.116  0.9204  0.3358  1.3254
 6414SOL    HW325429   4.836   2.448   3.051  0.0661 -1.4025 -0.2524
 6414SOL    MW425430   4.754   2.419   3.061 -0.1770 -0.9364 -0.1098
 6415SOL     OW25431   3.925   3.698   5.910 -0.0588  0.4463 -0.1417
 6415SOL    HW225432   3.981   3.664   5.840  1.9377 -0.4896  1.8149
 6415SOL    HW325433   3.938   3.793   5.906  0.5198  0.3535 -0.6699
 6415SOL    MW425434   3.934   3.706   5.900  0.6793 -0.6632 -0.2923
 6416SOL     OW25435   2.678   4.109   1.045 -0.2859  0.4438  0.5984
 6416SOL    HW225436   2.727   4.072   1.119  0.7439  0.8738  0.1594
 6416SOL    HW325437   2.740   4.106   0.972 -0.3206  2.5531  0.4263
 6416SOL    MW425438   2.693   4.104   1.045  0.0094  0.0591  0.3386
 6417SOL     OW25439   1.103   1.023   3.686 -0.6374  0.1992  0.3671
 6417SOL    HW225440   1.097   1.091   3.753 -2.8037 -0.3932  0.8466
 6417SOL    HW325441   1.193   0.990   3.693 -0.2881  1.3439  1.7475
 6417SOL    MW425442   1.114   1.028   3.696 -0.0530 -0.1120 -0.4913
 6418SOL     OW25443   0.869   5.772   3.402 -0.0018 -0.8267  0.0474
 6418SOL    HW225444   0.908   5.700   3.352  0.0265 -0.9738  0.2772
 6418SOL    HW325445   0.794   5.732   3.446  1.2540 -1.2764  1.9129
 6418SOL    MW425446   0.864   5.757   3.401  0.8417 -0.0756  0.2527
 6419SOL     OW25447   0.872   2.544   0.361 -0.3262  0.2700  0.2524
 6419SOL    HW225448   0.933   2.570   0.292  1.9542 -0.7778  1.7262
 6419SOL    HW325449   0.829   2.626   0.388  1.0280  1.2034 -0.3268
 6419SOL    MW425450   0.874   2.559   0.356  0.4622 -0.1919 -0.0707
 6420SOL     OW25451   5.693   5.320   5.171  0.1001  0.2927  0.0190
 6420SOL    HW225452   5.769   5.304   5.226 -0.0614 -2.9066 -0.5019
 6420SOL    HW325453   5.730   5.333   5.083  0.1414  1.3136  0.1763
 6420SOL    MW425454   5.708   5.320   5.166  0.0836  0.4809 -0.2603
 6421SOL     OW25455   1.812   3.100   2.116  0.2933 -1.1551  0.4137
 6421SOL    HW225456   1.896   3.074   2.078  0.7799  1.7253 -0.7266
 6421SOL    HW325457   1.749   3.090   2.045  0.6690  1.4915 -0.3631
 6421SOL    MW425458   1.815   3.095   2.102 -0.2106  0.0074  1.0461
 6422SOL     OW25459   4.580   4.592   6.337  0.2005  0.0038 -0.4346
 6422SOL    HW225460   4.551   4.587   6.428 -1.1153 -0.8848 -0.8821
 6422SOL    HW325461   4.598   4.501   6.312  3.0117  0.4502 -0.3326
 6422SOL    MW425462   4.579   4.579   6.346 -0.7165  0.3018  0.5714
 6423SOL     OW25463   5.609   5.998   0.186 -0.1876  0.1502 -0.5258
 6423SOL    HW225464   5.692   6.036   0.155 -1.0801  1.5322 -1.3301
 6423SOL    HW325465   5.603   5.915   0.140  1.3243 -0.5692  0.4885
 6423SOL    MW425466   5.619   5.992   0.176  0.8121  0.3869 -0.1073
 6424SOL     OW25467   2.906   3.288   3.917 -0.2359 -0.2839 -0.8528
 6424SOL    HW225468   2.989   3.243   3.935  0.1343  1.0379  1.1036
 6424SOL    HW325469   2.902   3.293   3.822  0.9684 -2.0641 -1.0620
 6424SOL    MW425470   2.916   3.282   3.907  0.8847 -0.3198 -0.0426
 6425SOL     OW25471   4.571   0.402   0.638  0.1396  0.4750  0.3512
 6425SOL    HW225472   4.553   0.496   0.640  0.6452  0.6203  3.2233
 6425SOL    HW325473   4.529   0.371   0.559 -4.2560  2.3520  1.6416
 6425SOL    MW425474   4.563   0.411   0.628 -0.0331 -0.6330  0.2461
 6426SOL     OW25475   4.756   0.411   1.455 -0.2442 -0.0671 -0.0834
 6426SOL    HW225476   4.762   0.465   1.534  1.0453 -1.1457  0.5875
 6426SOL    HW325477   4.813   0.337   1.472 -0.5451 -0.7175 -1.7367
 6426SOL    MW425478   4.764   0.409   1.467  0.0293 -0.1807  0.3897
 6427SOL     OW25479   1.274   1.906   0.768 -0.7331  0.5642  0.2113
 6427SOL    HW225480   1.323   1.985   0.745  1.9324 -1.0495 -0.0427
 6427SOL    HW325481   1.283   1.898   0.863 -0.8664  0.4915  0.2178
 6427SOL    MW425482   1.281   1.916   0.777  0.5678 -0.2832 -0.3578
 6428SOL     OW25483   4.017   5.787   3.898  0.0058 -0.5545 -0.2013
 6428SOL    HW225484   3.928   5.761   3.918 -0.4472  0.2569 -1.0618
 6428SOL    HW325485   4.069   5.708   3.910 -0.5016 -0.6205  2.1310
 6428SOL    MW425486   4.012   5.773   3.902  0.5708 -0.3514 -0.2330
 6429SOL     OW25487   6.021   0.138   2.920 -0.0130  0.0422  0.2718
 6429SOL    HW225488   5.936   0.093   2.916 -0.3793  0.7534 -0.3137
 6429SOL    HW325489   6.027   0.185   2.836 -0.3437  2.2843  1.4239
 6429SOL    MW425490   6.010   0.138   2.908  0.2564  0.1710 -0.4822
 6430SOL     OW25491   3.582   0.286   3.402  0.3691 -0.2388  0.0194
 6430SOL    HW225492   3.671   0.269   3.369  0.9189  2.1763  0.0301
 6430SOL    HW325493   3.556   0.205   3.445  2.1199 -1.3941 -0.9807
 6430SOL    MW425494   3.590   0.273   3.403  0.1802 -0.0132 -0.1517
 6431SOL     OW25495   4.044   6.010   3.698  0.1619 -0.0565  0.3979
 6431SOL    HW225496   4.010   5.962   3.774  0.3255  1.1100  1.2397
 6431SOL    HW325497   3.975   6.071   3.675  0.2966 -0.0938 -0.1204
 6431SOL    MW425498   4.031   6.012   3.705  0.2572  0.3320  0.4775
 6432SOL     OW25499   4.505   5.942   0.434 -0.1710 -0.0634  0.0624
 6432SOL    HW225500   4.442   5.970   0.500 -1.0797 -0.9353 -0.3906
 6432SOL    HW325501   4.461   5.870   0.388  0.6060  0.2303 -1.2050
 6432SOL    MW425502   4.491   5.936   0.437 -0.5703 -0.4845  0.0189
 6433SOL     OW25503   4.903   4.706   1.824  0.0412  0.5297  0.3335
 6433SOL    HW225504   4.982   4.724   1.875  0.8405 -0.6786 -0.4215
 6433SOL    HW325505   4.923   4.741   1.737 -1.2532  2.4536  0.7576
 6433SOL    MW425506   4.916   4.713   1.819  0.0300 -0.5415  0.0698
 6434SOL     OW25507   5.617   3.925   1.461 -0.2246 -0.5537 -0.6312
 6434SOL    HW225508   5.597   3.932   1.555  0.3677 -1.1290 -0.4562
 6434SOL    HW325509   5.696   3.873   1.457  0.1548  0.0607 -1.4276
 6434SOL    MW425510   5.624   3.919   1.473  0.2611 -0.0838  0.0872
 6435SOL     OW25511   5.667   4.713   5.174  0.7610 -0.6409 -0.5606
 6435SOL    HW225512   5.643   4.672   5.091 -0.7579 -1.4138  0.2287
 6435SOL    HW325513   5.591   4.768   5.196  0.0359 -2.3557  1.5105
 6435SOL    MW425514   5.654   4.715   5.166  0.0908 -0.4754 -0.3909
 6436SOL     OW25515   1.014   2.893   0.209 -0.0197 -0.3496 -0.0778
 6436SOL    HW225516   1.105   2.923   0.202  0.1361 -0.9210 -0.7052
 6436SOL    HW325517   0.978   2.939   0.284  0.8218 -0.1877  0.2299
 6436SOL    MW425518   1.021   2.903   0.218 -0.0259  0.1342  0.3000
 6437SOL     OW25519   0.305   3.989   5.371  0.1072 -0.2391 -0.1062
 6437SOL    HW225520   0.223   4.020   5.410 -0.1632 -0.1747 -0.7215
 6437SOL    HW325521   0.343   3.933   5.439  0.6617  1.4791  1.0939
 6437SOL    MW425522   0.299   3.986   5.385 -1.2008  0.7920 -0.0933
 6438SOL     OW25523   2.311   3.381   1.501  0.7635 -0.8961  0.3364
 6438SOL    HW225524   2.274   3.315   1.560  0.0413 -1.7677 -1.0428
 6438SOL    HW325525   2.248   3.453   1.504 -0.0535 -1.5586 -0.4901
 6438SOL    MW425526   2.298   3.382   1.509  0.1277 -0.7788 -0.3762
 6439SOL     OW25527   3.971   3.817   5.212  0.3415 -0.0707  0.3506
 6439SOL    HW225528   3.889   3.824   5.261  0.6785  2.1840  0.6688
 6439SOL    HW325529   3.945   3.776   5.129 -0.7714 -1.0739  1.1575
 6439SOL    MW425530   3.957   3.812   5.208 -0.4400  1.0171  0.0055
 6440SOL     OW25531   1.976   3.744   1.473  0.9043 -0.1395  0.8899
 6440SOL    HW225532   1.947   3.740   1.382 -1.2278 -0.7309  1.5535
 6440SOL    HW325533   2.036   3.818   1.474 -2.1480  2.6106 -0.2294
 6440SOL    MW425534   1.980   3.753   1.461  0.6144 -0.6864  0.2646
 6441SOL     OW25535   3.742   0.937   2.179 -0.3864  0.1376 -0.1787
 6441SOL    HW225536   3.689   0.990   2.120 -1.0868  1.5757  1.6209
 6441SOL    HW325537   3.797   1.000   2.225  1.7186 -1.1502 -0.7663
 6441SOL    MW425538   3.742   0.952   2.178  0.0798  0.3414 -0.1023
 6442SOL     OW25539   4.941   1.076   2.651  0.0169 -0.0117 -0.4983
 6442SOL    HW225540   4.976   1.158   2.688  0.8174 -0.5091 -0.1316
 6442SOL    HW325541   4.855   1.066   2.693  0.1172  0.4010 -0.1860
 6442SOL    MW425542   4.934   1.086   2.661 -0.2239  0.5658 -0.1778
 6443SOL     OW25543   6.395   1.474   6.034 -0.0416  0.0961  0.2089
 6443SOL    HW225544   6.366   1.504   5.947 -0.4736  0.7337  0.5649
 6443SOL    HW325545   6.475   1.523   6.051 -0.6577  0.9570  0.7188
 6443SOL    MW425546   6.401   1.484   6.025  0.1262 -0.0302  0.5359
 6444SOL     OW25547   1.670   4.668   3.915 -0.6938  0.0329  0.3777
 6444SOL    HW225548   1.669   4.645   4.008 -0.6375  0.5058  0.5006
 6444SOL    HW325549   1.578   4.683   3.893 -0.5871  1.4222  0.7557
 6444SOL    MW425550   1.658   4.667   3.924  0.5561 -0.5983  0.3073
 6445SOL     OW25551   5.614   4.610   5.827  0.3187  0.3928  0.6086
 6445SOL    HW225552   5.617   4.650   5.741 -2.5492 -0.2811  0.1007
 6445SOL    HW325553   5.549   4.660   5.875  1.4856  0.4214  2.2590
 6445SOL    MW425554   5.606   4.622   5.822  0.5631  0.4120 -0.0695
 6446SOL     OW25555   4.190   5.811   2.442 -0.2667  0.0173  0.0995
 6446SOL    HW225556   4.198   5.817   2.537  0.1813 -0.7165  0.1159
 6446SOL    HW325557   4.262   5.864   2.408 -1.3445  1.5759  0.1320
 6446SOL    MW425558   4.200   5.819   2.450 -0.3387  0.0559  0.1413
 6447SOL     OW25559   0.694   0.484   4.876 -0.1781  0.3496 -0.0996
 6447SOL    HW225560   0.627   0.551   4.890 -1.7071 -1.0634 -0.3396
 6447SOL    HW325561   0.759   0.528   4.821 -2.5752  0.8807 -2.8132
 6447SOL    MW425562   0.694   0.499   4.870  0.0930  0.0091  0.4563
 6448SOL     OW25563   5.493   5.863   5.141 -0.6968  0.4624 -0.4208
 6448SOL    HW225564   5.548   5.927   5.095 -0.2737  0.5002  0.1212
 6448SOL    HW325565   5.447   5.915   5.207 -1.2474  0.3983 -0.7514
 6448SOL    MW425566   5.494   5.878   5.143 -0.2781 -0.1169 -0.3902
 6449SOL     OW25567   4.251   6.204   6.209  0.2333 -0.3295  0.5386
 6449SOL    HW225568   4.331   6.173   6.250  1.7390  0.8193 -1.3821
 6449SOL    HW325569   4.214   6.265   6.272  2.2261  1.0322  0.4712
 6449SOL    MW425570   4.256   6.208   6.222  0.2005 -0.2064  0.1891
 6450SOL     OW25571   5.164   4.435   1.995  0.1749 -0.6542  0.2176
 6450SOL    HW225572   5.217   4.430   2.074 -0.8920 -0.8020  0.9497
 6450SOL    HW325573   5.179   4.351   1.950  0.9298 -0.4925  0.1610
 6450SOL    MW425574   5.173   4.423   1.999 -1.3315  0.2647  0.7975
 6451SOL     OW25575   6.090   6.343   3.272 -0.0424 -0.4863  0.1634
 6451SOL    HW225576   6.002   6.377   3.293  1.2650  2.4543  1.4659
 6451SOL    HW325577   6.127   6.321   3.357  0.8412 -0.8280 -0.3019
 6451SOL    MW425578   6.083   6.345   3.286 -0.5582  0.3016  0.2921
 6452SOL     OW25579   0.689   3.922   0.221 -0.2682  0.3467 -0.3337
 6452SOL    HW225580   0.682   3.829   0.245  0.7874 -0.1216 -1.6805
 6452SOL    HW325581   0.696   3.968   0.304 -0.7587 -0.7896  0.3564
 6452SOL    MW425582   0.689   3.915   0.235 -0.1381 -0.1237 -0.1437
 6453SOL     OW25583   6.191   4.291   4.398 -0.5394 -0.4152 -0.2350
 6453SOL    HW225584   6.125   4.358   4.380 -1.1197 -0.9970 -0.2937
 6453SOL    HW325585   6.269   4.321   4.352 -1.1843 -0.4418 -1.3777
 6453SOL    MW425586   6.193   4.304   4.389  0.3121  0.0566 -0.6878
 6454SOL     OW25587   3.781   1.033   3.702  0.1154 -0.2813 -1.0077
 6454SOL    HW225588   3.694   1.058   3.731 -0.6249 -1.5496 -2.0243
 6454SOL    HW325589   3.838   1.053   3.776 -1.2428 -0.5972  0.1561
 6454SOL    MW425590   3.777   1.039   3.716  0.0323 -0.3179  0.0954
 6455SOL     OW25591   4.749   0.087   0.540  0.3658 -0.7881 -0.1919
 6455SOL    HW225592   4.839   0.054   0.547  0.5451 -0.1541  0.6775
 6455SOL    HW325593   4.749   0.167   0.593 -0.2696  0.1739 -1.5756
 6455SOL    MW425594   4.761   0.093   0.548  0.5311 -0.3987 -0.0009
 6456SOL     OW25595   1.479   3.052   4.897 -0.0937 -0.0018 -0.3397
 6456SOL    HW225596   1.477   3.132   4.846  2.4329  0.4403  0.1280
 6456SOL    HW325597   1.394   3.011   4.881 -1.0357  2.2162 -1.4296
 6456SOL    MW425598   1.468   3.057   4.888 -0.2558  0.2248 -0.1510
 6457SOL     OW25599   5.495   3.040   3.119 -0.3616 -0.3985  0.4694
 6457SOL    HW225600   5.437   3.003   3.186 -1.2092 -1.8343 -0.9711
 6457SOL    HW325601   5.464   3.129   3.107 -2.1699 -1.0677 -0.1031
 6457SOL    MW425602   5.483   3.047   3.126  0.0131  0.0618  0.0009
 6458SOL     OW25603   2.752   5.792   3.552  0.2116  0.8540 -0.0049
 6458SOL    HW225604   2.768   5.800   3.646 -1.1165 -0.6442  0.3867
 6458SOL    HW325605   2.839   5.780   3.514  0.7298  1.0349  1.0911
 6458SOL    MW425606   2.766   5.791   3.559 -0.3413  0.4159 -0.2532
 6459SOL     OW25607   1.778   5.948   2.187 -0.2407 -0.5522 -0.5493
 6459SOL    HW225608   1.867   5.961   2.156  0.9774 -1.1129  2.3604
 6459SOL    HW325609   1.784   5.872   2.246 -2.6494 -0.6155 -0.2687
 6459SOL    MW425610   1.790   5.939   2.191  0.4511 -0.0071 -0.2538
 6460SOL     OW25611   1.471   6.285   4.598 -0.4565 -0.2296 -0.0932
 6460SOL    HW225612   1.473   6.375   4.631 -0.4764  0.1547 -1.1168
 6460SOL    HW325613   1.447   6.233   4.675 -0.1030  0.5894  0.5960
 6460SOL    MW425614   1.468   6.290   4.613 -0.3467 -0.1516 -0.0926
 6461SOL     OW25615   6.211   0.638   4.637 -0.3586 -0.0576 -0.2008
 6461SOL    HW225616   6.116   0.645   4.623 -0.2134 -1.0351 -1.8940
 6461SOL    HW325617   6.246   0.611   4.552  1.3686 -0.4326  0.5906
 6461SOL    MW425618   6.203   0.636   4.624 -0.1699 -0.0078 -0.5234
 6462SOL     OW25619   1.726   0.505   2.052 -0.2864  0.2193 -0.2284
 6462SOL    HW225620   1.672   0.484   1.976 -0.7209 -2.3879  0.6848
 6462SOL    HW325621   1.814   0.479   2.027  0.0699  1.7557 -0.6863
 6462SOL    MW425622   1.730   0.499   2.039  0.0479 -0.5777 -0.8002
 6463SOL     OW25623   5.636   0.018   6.029 -0.1598  0.3152  0.6059
 6463SOL    HW225624   5.710   0.077   6.011 -0.2652 -0.1338 -1.4963
 6463SOL    HW325625   5.622  -0.029   5.947 -1.5552 -1.0136  1.5564
 6463SOL    MW425626   5.644   0.020   6.016 -0.8956  0.5492  0.4163
 6464SOL     OW25627   2.240   1.417   1.040  0.1790 -0.6511  0.1736
 6464SOL    HW225628   2.183   1.493   1.039  0.7872 -0.1844  0.5740
 6464SOL    HW325629   2.183   1.344   1.013 -1.0061 -0.4954  2.0553
 6464SOL    MW425630   2.225   1.417   1.036 -0.3211  0.1714 -0.2779
 6465SOL     OW25631   4.301   2.378   3.913 -0.7588 -0.3330 -0.6588
 6465SOL    HW225632   4.250   2.352   3.837 -2.1011 -0.2880  0.1965
 6465SOL    HW325633   4.344   2.459   3.887 -0.3329 -0.8821 -1.7261
 6465SOL    MW425634   4.300   2.385   3.900 -0.1945 -0.1446 -0.4822
 6466SOL     OW25635   3.460   4.958   4.035  0.0621  0.4902 -0.2553
 6466SOL    HW225636   3.449   5.053   4.035 -0.1976  0.4960 -1.8243
 6466SOL    HW325637   3.476   4.936   3.943 -0.9328 -1.0878 -0.0969
 6466SOL    MW425638   3.461   4.967   4.023  0.0562 -1.0075 -0.3705
 6467SOL     OW25639   6.216   6.031   1.830 -0.2130 -0.0173 -0.3850
 6467SOL    HW225640   6.162   6.068   1.900  1.0600  1.9874 -0.3694
 6467SOL    HW325641   6.156   5.977   1.779 -1.9241  1.0747  0.3952
 6467SOL    MW425642   6.201   6.029   1.832 -0.2857  0.4847  0.1076
 6468SOL     OW25643   4.596   1.245   5.445 -0.2699 -0.0534 -0.4347
 6468SOL    HW225644   4.511   1.281   5.469  0.7529  2.2784 -0.0286
 6468SOL    HW325645   4.641   1.233   5.529  1.4653  3.2832 -0.7387
 6468SOL    MW425646   4.591   1.248   5.460  0.3449  0.6468  0.5231
 6469SOL     OW25647   0.214   2.204   3.365  0.2794  0.1262 -0.1768
 6469SOL    HW225648   0.289   2.150   3.340  0.1989 -1.0383  1.8651
 6469SOL    HW325649   0.214   2.276   3.302  3.4030  0.4354  0.0151
 6469SOL    MW425650   0.224   2.206   3.353 -0.0367  0.4364  0.2403
 6470SOL     OW25651   0.477   5.530   3.218  0.3325 -0.3599 -0.2829
 6470SOL    HW225652   0.426   5.511   3.140 -0.7923  0.1726  0.2907
 6470SOL    HW325653   0.427   5.598   3.263 -0.0039 -1.8792  1.7934
 6470SOL    MW425654   0.463   5.536   3.214 -0.1496  0.1396 -0.1730
 6471SOL     OW25655   2.053   2.251   4.332 -0.0921  0.2132 -0.2325
 6471SOL    HW225656   2.076   2.194   4.259 -1.3629 -0.3076 -0.2478
 6471SOL    HW325657   2.001   2.196   4.390 -1.2342  1.2959 -0.1839
 6471SOL    MW425658   2.049   2.237   4.330  0.3665 -0.0509  0.0597
 6472SOL     OW25659   2.992   0.038   6.271 -0.4292  0.0542  0.3818
 6472SOL    HW225660   2.958  -0.048   6.243  3.3870 -1.1359 -1.2600
 6472SOL    HW325661   3.056   0.017   6.339  1.1904  1.4601 -0.6376
 6472SOL    MW425662   2.996   0.024   6.276  0.3172  0.3871  0.0128
 6473SOL     OW25663   4.481   5.404   5.621 -0.2317  0.0061 -0.2709
 6473SOL    HW225664   4.495   5.327   5.677 -0.3740 -1.5042 -2.2007
 6473SOL    HW325665   4.537   5.471   5.659 -0.3480 -0.9254  1.6892
 6473SOL    MW425666   4.490   5.402   5.633 -0.8920  0.1732 -0.7378
 6474SOL     OW25667   3.164   4.683   2.735  0.1814  0.3737 -0.3884
 6474SOL    HW225668   3.190   4.597   2.700 -1.8034  0.2953 -1.8781
 6474SOL    HW325669   3.122   4.727   2.661 -1.5595  1.4099  1.1302
 6474SOL    MW425670   3.162   4.677   2.720 -0.2070  0.2216 -0.0143
 6475SOL     OW25671   1.043   2.610   0.157 -0.5424 -0.4455 -0.4484
 6475SOL    HW225672   1.012   2.607   0.066  0.5564 -2.3513 -0.8260
 6475SOL    HW325673   1.036   2.702   0.182 -0.4066  0.2221 -2.6286
 6475SOL    MW425674   1.038   2.621   0.148 -0.5774  0.1993  0.3351
 6476SOL     OW25675   1.099   5.454   1.583 -0.4041  0.6271 -1.0231
 6476SOL    HW225676   1.068   5.505   1.508 -1.4909  0.5778 -0.6226
 6476SOL    HW325677   1.047   5.373   1.581 -1.0586  0.9862  0.2591
 6476SOL    MW425678   1.088   5.450   1.573 -0.1930 -0.6135  0.4376
 6477SOL     OW25679   0.108   2.425   5.808 -0.1083 -0.6964 -0.0984
 6477SOL    HW225680   0.193   2.400   5.772  0.2819 -1.9361  1.5153
 6477SOL    HW325681   0.122   2.512   5.846  0.9684 -1.5624  1.6160
 6477SOL    MW425682   0.121   2.433   5.809 -0.2337  0.4905  0.0759
 6478SOL     OW25683   2.670   2.662   5.009  0.4751  0.2386  0.4506
 6478SOL    HW225684   2.748   2.678   5.063  0.0743  0.5886  0.9376
 6478SOL    HW325685   2.703   2.613   4.933  1.3191  1.1238  0.2210
 6478SOL    MW425686   2.685   2.658   5.006  0.0636 -0.7231 -0.1816
 6479SOL     OW25687   0.817   3.485   0.333 -0.1290  0.1508  0.0827
 6479SOL    HW225688   0.732   3.527   0.319 -0.9787 -1.4206  0.2106
 6479SOL    HW325689   0.871   3.553   0.374 -1.6588  0.8974  0.9688
 6479SOL    MW425690   0.813   3.499   0.337  0.0752  0.0345 -0.0310
 6480SOL     OW25691   2.809   3.937   1.310 -0.2921 -0.2749  0.3811
 6480SOL    HW225692   2.723   3.933   1.352 -0.5354  1.3079  0.0963
 6480SOL    HW325693   2.817   3.852   1.265 -1.9473 -0.2613 -0.0381
 6480SOL    MW425694   2.798   3.925   1.309 -0.0758  0.9245 -0.4052
 6481SOL     OW25695   0.448   5.920   3.624 -0.4220 -0.2562 -0.8382
 6481SOL    HW225696   0.446   5.993   3.685 -1.0462  0.9089 -2.1905
 6481SOL    HW325697   0.400   5.850   3.668  1.1056 -0.2688  0.9264
 6481SOL    MW425698   0.441   5.920   3.638 -0.5978  0.1936 -0.5629
 6482SOL     OW25699   2.424   2.494   4.345 -0.1972 -0.5300 -0.3167
 6482SOL    HW225700   2.351   2.531   4.296  0.5454  0.1815 -0.9171
 6482SOL    HW325701   2.436   2.406   4.307 -0.5333 -0.5256 -0.4322
 6482SOL    MW425702   2.416   2.487   4.333 -0.5826 -0.1049  0.3049
 6483SOL     OW25703   1.652   0.920   6.183 -0.1977 -0.0241  0.1953
 6483SOL    HW225704   1.626   1.005   6.220  1.9254 -0.0169  1.8286
 6483SOL    HW325705   1.731   0.939   6.133 -0.0172 -0.9607  0.1145
 6483SOL    MW425706   1.659   0.934   6.181  0.1777 -0.2017  0.1507
 6484SOL     OW25707   2.850   0.592   1.617  0.6405  0.3403  0.2256
 6484SOL    HW225708   2.838   0.665   1.557 -1.2643 -1.1037 -1.2700
 6484SOL    HW325709   2.827   0.628   1.703 -0.2379  1.4914 -0.4612
 6484SOL    MW425710   2.845   0.606   1.620 -0.0811 -0.3220  0.2010
 6485SOL     OW25711   0.440   5.233   2.999  0.4836 -0.6523 -0.3076
 6485SOL    HW225712   0.441   5.321   2.962 -0.6983 -1.0730 -1.4463
 6485SOL    HW325713   0.419   5.176   2.925  1.0799 -1.8790  0.4338
 6485SOL    MW425714   0.437   5.237   2.984  0.0671  0.1384 -0.2216
 6486SOL     OW25715   3.983   3.528   0.076  0.0198 -0.3009 -0.0249
 6486SOL    HW225716   3.906   3.535   0.132  0.8943 -1.5253  1.4427
 6486SOL    HW325717   3.963   3.455   0.017 -0.3747  0.1176 -0.4150
 6486SOL    MW425718   3.970   3.519   0.076  0.3292 -0.5757  0.2285
 6487SOL     OW25719   6.144   4.209   2.659  0.2496  0.4151 -0.2689
 6487SOL    HW225720   6.208   4.188   2.727 -0.2200  0.0521  0.0709
 6487SOL    HW325721   6.068   4.244   2.706  0.2069  0.8710 -0.6687
 6487SOL    MW425722   6.142   4.211   2.674  0.2503  0.1134 -0.3958
 6488SOL     OW25723   4.823   5.875   3.904  0.2116 -0.2182  0.1590
 6488SOL    HW225724   4.904   5.920   3.879  0.1038 -0.9621 -1.6462
 6488SOL    HW325725   4.844   5.834   3.988  1.9682 -0.9790 -0.5878
 6488SOL    MW425726   4.837   5.876   3.912 -0.4260 -0.0284  0.0198
 6489SOL     OW25727   3.552   5.955   5.286 -0.0438  0.3296 -0.0260
 6489SOL    HW225728   3.646   5.940   5.284 -0.0874 -0.3285  1.6022
 6489SOL    HW325729   3.525   5.930   5.374 -1.4053  2.6735  0.2956
 6489SOL    MW425730   3.561   5.949   5.297  0.0856  0.0925 -0.2686
 6490SOL     OW25731   5.420   6.320   0.432 -0.0657 -0.1892  0.5012
 6490SOL    HW225732   5.433   6.363   0.348 -0.4402 -1.6667 -0.3355
 6490SOL    HW325733   5.508   6.311   0.469  0.0656  0.7758  0.4516
 6490SOL    MW425734   5.433   6.324   0.426  0.2136  0.4434 -0.3975
 6491SOL     OW25735   0.961   5.237   6.023  0.4833  0.1032 -0.6876
 6491SOL    HW225736   0.915   5.270   5.945  0.0544 -0.1394 -0.5393
 6491SOL    HW325737   1.032   5.299   6.037 -0.2353  0.8994 -0.4892
 6491SOL    MW425738   0.965   5.249   6.014 -0.0478  0.7799 -0.1296
 6492SOL     OW25739   5.066   4.136   2.393 -0.2701  0.1880 -0.2912
 6492SOL    HW225740   4.987   4.172   2.352  0.1191  1.7881  0.2725
 6492SOL    HW325741   5.034   4.070   2.454 -0.9188 -1.6101 -2.4596
 6492SOL    MW425742   5.051   4.132   2.395 -0.1676 -0.1022 -0.4550
 6493SOL     OW25743   2.063   5.485   3.587 -0.3088 -0.3584 -0.3406
 6493SOL    HW225744   2.103   5.401   3.611 -0.5742  0.2167  2.4778
 6493SOL    HW325745   2.137   5.545   3.579 -0.2779 -0.3390  0.0736
 6493SOL    MW425746   2.078   5.482   3.589  0.1805 -0.0232 -0.2086
 6494SOL     OW25747   3.687   3.359   2.726 -0.0139  0.1025 -0.0025
 6494SOL    HW225748   3.668   3.344   2.633  0.1189  1.2412 -0.2332
 6494SOL    HW325749   3.725   3.447   2.728 -0.2204  0.1770  1.1664
 6494SOL    MW425750   3.690   3.368   2.714 -0.0732 -0.1389 -0.5608
 6495SOL     OW25751   4.681   3.919   5.276  0.4610 -0.0638  0.0198
 6495SOL    HW225752   4.687   3.994   5.335  1.7238 -0.3599  0.2905
 6495SOL    HW325753   4.616   3.945   5.211 -0.2047  0.6743  0.9488
 6495SOL    MW425754   4.673   3.932   5.275  0.4249 -0.4150 -0.1650
 6496SOL     OW25755   3.358   2.610   0.731  0.4313 -0.1726 -0.3136
 6496SOL    HW225756   3.303   2.532   0.738 -1.1608  0.8098 -1.2753
 6496SOL    HW325757   3.439   2.586   0.776 -0.6478 -1.7778  0.8881
 6496SOL    MW425758   3.362   2.596   0.738  0.0629  0.6291  0.1512
 6497SOL     OW25759   6.320   4.729   3.246 -0.1338  0.5564 -0.2215
 6497SOL    HW225760   6.301   4.636   3.228 -1.5474  0.7962 -0.1014
 6497SOL    HW325761   6.374   4.728   3.325 -2.5291 -0.0949  1.5175
 6497SOL    MW425762   6.325   4.716   3.254 -0.2233 -0.0566 -0.2265
 6498SOL     OW25763   0.567   2.164   5.654 -0.0904  0.2365 -0.1199
 6498SOL    HW225764   0.640   2.188   5.712  0.0155  0.8816 -0.5031
 6498SOL    HW325765   0.532   2.083   5.691 -0.7130  1.1877  1.4752
 6498SOL    MW425766   0.572   2.157   5.666  0.5586  0.3038 -0.0798
 6499SOL     OW25767   1.301   2.251   4.785  0.1071  0.2862  0.2362
 6499SOL    HW225768   1.227   2.303   4.817  0.2611  0.0260  1.0272
 6499SOL    HW325769   1.331   2.298   4.707 -0.1357  1.0510  0.5978
 6499SOL    MW425770   1.295   2.264   4.779  0.6745  0.1138  0.2358
 6500SOL     OW25771   2.621   3.478   0.285 -0.1620  0.0198  0.4875
 6500SOL    HW225772   2.579   3.492   0.370 -0.2959  0.7642  0.3038
 6500SOL    HW325773   2.654   3.564   0.260  0.2844 -0.2911 -0.0018
 6500SOL    MW425774   2.620   3.491   0.293 -0.4099  0.3628 -0.2331
 6501SOL     OW25775   2.373   4.963   4.169 -0.2352  0.3338  0.2726
 6501SOL    HW225776   2.415   4.887   4.209 -0.2438  0.8894  1.3492
 6501SOL    HW325777   2.287   4.967   4.209 -0.7525  0.1320 -0.7757
 6501SOL    MW425778   2.368   4.953   4.179 -0.3995  0.6353  0.3159
 6502SOL     OW25779   6.163   3.509   1.360 -0.4508  0.5155  0.1727
 6502SOL    HW225780   6.196   3.435   1.411  0.4412  1.1447  0.5254
 6502SOL    HW325781   6.069   3.512   1.382 -0.5370 -0.5883  0.0387
 6502SOL    MW425782   6.155   3.499   1.370  0.9832  0.1102 -0.3514
 6503SOL     OW25783   0.474   3.938   0.787  0.2764 -0.6121  0.4082
 6503SOL    HW225784   0.520   3.921   0.869  2.4222  0.7187 -0.4363
 6503SOL    HW325785   0.506   3.870   0.727 -0.8533 -1.2348  0.4893
 6503SOL    MW425786   0.484   3.927   0.790 -0.1113 -0.3936 -0.7317
 6504SOL     OW25787   4.397   2.644   3.860 -0.2053  0.1507 -0.4199
 6504SOL    HW225788   4.378   2.703   3.787 -0.3253  0.8989  0.1973
 6504SOL    HW325789   4.489   2.620   3.848 -0.3905 -0.2105 -1.1419
 6504SOL    MW425790   4.407   2.649   3.849 -0.2949 -0.1737  0.2689
 6505SOL     OW25791   5.387   4.020   4.651  0.2896 -0.2182 -0.3795
 6505SOL    HW225792   5.467   4.037   4.701 -0.0491  0.3070 -0.0001
 6505SOL    HW325793   5.346   4.106   4.642  0.0712 -0.3915 -1.1024
 6505SOL    MW425794   5.392   4.033   4.656  0.1396  0.3485 -0.6430
 6506SOL     OW25795   2.478   1.269   5.513  0.1088 -0.1326  0.2221
 6506SOL    HW225796   2.439   1.228   5.436 -0.1920 -1.4225  1.0465
 6506SOL    HW325797   2.488   1.198   5.576  1.5247  0.6586  0.9265
 6506SOL    MW425798   2.474   1.255   5.511 -0.8870  0.3833 -0.0918
 6507SOL     OW25799   3.920   4.104   5.495 -0.2224  0.1464 -0.2001
 6507SOL    HW225800   3.982   4.034   5.513 -0.8148 -0.4951 -0.6243
 6507SOL    HW325801   3.905   4.100   5.401  0.3577  1.3768 -0.3644
 6507SOL    MW425802   3.926   4.094   5.485  0.2667 -0.0453 -0.1900
 6508SOL     OW25803   4.506   2.957   1.619 -0.9385 -0.0163  0.4888
 6508SOL    HW225804   4.451   2.879   1.614 -0.6953 -0.1178 -1.6007
 6508SOL    HW325805   4.446   3.028   1.640 -1.9786 -0.0996 -1.9176
 6508SOL    MW425806   4.491   2.956   1.621 -0.1764  0.1010 -0.1627
 6509SOL     OW25807   1.123   4.710   1.309  0.4800  0.4241  0.5276
 6509SOL    HW225808   1.168   4.721   1.225 -1.0004  1.1911 -0.2102
 6509SOL    HW325809   1.064   4.636   1.294  0.3400  0.4449  0.9652
 6509SOL    MW425810   1.121   4.702   1.296  0.1899 -0.2297  0.3263
 6510SOL     OW25811   5.480   1.288   6.338 -0.1979 -0.2799 -0.4782
 6510SOL    HW225812   5.490   1.382   6.352 -1.6695 -0.2396  0.4362
 6510SOL    HW325813   5.463   1.280   6.244 -1.0493  0.4612 -0.4006
 6510SOL    MW425814   5.479   1.299   6.328  0.1015  0.5556 -0.0262
 6511SOL     OW25815   2.730   6.253   0.513  0.9581  0.2718  0.1411
 6511SOL    HW225816   2.691   6.304   0.584  2.6228  0.4240  0.9952
 6511SOL    HW325817   2.758   6.171   0.554  1.6528  0.2240 -0.4026
 6511SOL    MW425818   2.729   6.249   0.527 -0.0445 -0.8179  0.3314
 6512SOL     OW25819   6.296   3.874   1.079 -0.2075  0.0169 -0.0492
 6512SOL    HW225820   6.315   3.786   1.111  0.1568 -0.8316 -2.3580
 6512SOL    HW325821   6.207   3.868   1.044 -0.7804  1.0357  1.1466
 6512SOL    MW425822   6.287   3.862   1.079  0.2734  0.1765 -0.4589
 6513SOL     OW25823   0.230   1.172   3.718  0.2924 -0.5973  0.5525
 6513SOL    HW225824   0.194   1.109   3.780  1.5737 -0.4189  1.5291
 6513SOL    HW325825   0.273   1.119   3.652  0.0260 -0.7756  0.5233
 6513SOL    MW425826   0.231   1.157   3.718  0.6912 -0.4993 -0.6848
 6514SOL     OW25827   5.151   6.144   5.446  0.1753 -0.4444  0.6860
 6514SOL    HW225828   5.169   6.211   5.512  1.1432 -0.5065  0.5008
 6514SOL    HW325829   5.142   6.192   5.364  0.0820 -0.4665  0.6832
 6514SOL    MW425830   5.153   6.159   5.443  0.3451  0.1849  0.2852
 6515SOL     OW25831   0.726   5.430   3.156 -0.1477  0.2277  0.4059
 6515SOL    HW225832   0.641   5.466   3.183 -0.0208  0.3237  0.6787
 6515SOL    HW325833   0.713   5.405   3.065 -0.3571  0.5991  0.3308
 6515SOL    MW425834   0.713   5.431   3.148 -0.5529 -0.0012  0.6381
 6516SOL     OW25835   6.244   3.023   4.069  0.7117  0.7372 -0.1288
 6516SOL    HW225836   6.275   3.097   4.123  1.9440 -2.1228  3.4973
 6516SOL    HW325837   6.325   2.983   4.037  0.0282  1.2442 -2.6546
 6516SOL    MW425838   6.259   3.028   4.072 -0.3471  0.5052 -0.5181
 6517SOL     OW25839   3.851   4.151   6.228 -0.1480  0.0698 -0.1821
 6517SOL    HW225840   3.784   4.200   6.274  0.7065  0.7793  0.3365
 6517SOL    HW325841   3.887   4.092   6.295  1.3623  1.3762  0.1982
 6517SOL    MW425842   3.847   4.150   6.243  0.2035 -0.2106  0.0944
 6518SOL     OW25843   3.867   1.077   6.434 -0.1249 -0.2456  0.1830
 6518SOL    HW225844   3.857   1.077   6.529 -0.8198  0.6792  0.1277
 6518SOL    HW325845   3.928   1.148   6.416 -0.2467 -0.2037 -0.0798
 6518SOL    MW425846   3.873   1.086   6.444 -0.6210  0.2925  0.0509
 6519SOL     OW25847   3.512   1.856   2.374  0.0831 -0.0702 -0.0657
 6519SOL    HW225848   3.555   1.815   2.450  0.8483 -0.6974 -0.8205
 6519SOL    HW325849   3.494   1.783   2.314  2.7825  0.7603 -2.0816
 6519SOL    MW425850   3.515   1.841   2.376  0.6243 -0.6678 -0.4274
 6520SOL     OW25851   3.226   3.344   3.848  0.1551 -0.4534 -0.3671
 6520SOL    HW225852   3.319   3.346   3.825 -0.0111 -4.0260 -1.9842
 6520SOL    HW325853   3.218   3.272   3.910 -1.6338 -0.6700 -0.7915
 6520SOL    MW425854   3.237   3.335   3.853 -0.4399  0.3347  0.1104
 6521SOL     OW25855   4.920   2.678   3.720 -0.3869 -0.3219  0.3006
 6521SOL    HW225856   5.006   2.640   3.739 -0.0582  0.1734 -0.1668
 6521SOL    HW325857   4.928   2.710   3.630 -1.0557 -0.2571  0.2658
 6521SOL    MW425858   4.933   2.677   3.711  0.3003  0.3093  0.5227
 6522SOL     OW25859   4.682   5.473   4.550 -0.4508  0.5291 -0.0002
 6522SOL    HW225860   4.707   5.452   4.640  0.1139 -1.3322 -0.5472
 6522SOL    HW325861   4.637   5.557   4.557  1.8655  1.7288  1.6536
 6522SOL    MW425862   4.679   5.481   4.563  0.1924  0.1745  0.2253
 6523SOL     OW25863   3.476   2.840   2.391  0.4050 -0.2348  0.2157
 6523SOL    HW225864   3.501   2.922   2.350  0.4574  0.1862  1.0564
 6523SOL    HW325865   3.450   2.865   2.480 -0.9390 -0.9428  0.0431
 6523SOL    MW425866   3.476   2.854   2.398 -0.0055 -0.0510 -0.8192
 6524SOL     OW25867   1.610   0.463   4.995  0.0015  0.1659 -0.1536
 6524SOL    HW225868   1.595   0.391   5.056  3.5061 -0.8220 -0.2379
 6524SOL    HW325869   1.650   0.532   5.048 -0.0623  0.6530 -0.7263
 6524SOL    MW425870   1.613   0.462   5.010  0.7047  0.5768  0.5268
 6525SOL     OW25871   4.833   1.416   5.358 -0.1919  0.1971 -0.1931
 6525SOL    HW225872   4.862   1.390   5.271  0.9035 -0.9027  0.4664
 6525SOL    HW325873   4.771   1.347   5.384  1.1949 -0.7569  0.7597
 6525SOL    MW425874   4.829   1.403   5.350  0.5039 -0.1109 -0.4117
 6526SOL     OW25875   4.578   5.841   2.168  0.1165 -0.2748  0.1881
 6526SOL    HW225876   4.564   5.791   2.248 -2.4140 -0.1628 -0.1152
 6526SOL    HW325877   4.502   5.821   2.113  1.2637  0.4574 -1.7842
 6526SOL    MW425878   4.566   5.832   2.171 -0.2138 -0.1968  0.1569
 6527SOL     OW25879   2.298   5.972   5.809  0.0274 -0.2480  0.1558
 6527SOL    HW225880   2.246   6.045   5.776 -0.8119 -1.3050 -0.9825
 6527SOL    HW325881   2.373   6.013   5.853 -0.3089  1.2751 -0.6269
 6527SOL    MW425882   2.301   5.987   5.810 -0.5820 -0.0229  0.0643
 6528SOL     OW25883   3.905   2.947   3.677 -0.5999 -0.6737 -0.3647
 6528SOL    HW225884   3.837   2.895   3.633 -0.7477 -0.2154 -0.6774
 6528SOL    HW325885   3.921   3.020   3.618  0.0692 -0.7024 -0.2206
 6528SOL    MW425886   3.898   2.949   3.664 -0.2434 -0.0323 -0.0578
 6529SOL     OW25887   2.281   1.474   0.753 -0.6384  0.2278  0.1608
 6529SOL    HW225888   2.289   1.496   0.846 -1.5940  1.1794  0.0372
 6529SOL    HW325889   2.311   1.383   0.747 -0.1736  0.2850  1.3219
 6529SOL    MW425890   2.286   1.465   0.765  0.9625 -0.2151  0.0337
 6530SOL     OW25891   5.933   4.738   0.420 -0.5864  0.1035  0.5650
 6530SOL    HW225892   5.947   4.713   0.511 -0.8092 -0.3517  0.4738
 6530SOL    HW325893   6.014   4.714   0.375  0.0116  1.4297  0.8598
 6530SOL    MW425894   5.945   4.732   0.426  0.8307  0.0401  0.5962
 6531SOL     OW25895   0.818   2.266   1.446 -0.6649 -0.3933  0.0089
 6531SOL    HW225896   0.801   2.197   1.509  0.2516 -0.8602 -0.2369
 6531SOL    HW325897   0.753   2.253   1.377 -1.2089 -0.3173  0.5040
 6531SOL    MW425898   0.807   2.255   1.445  0.1349 -0.1191  0.3815
 6532SOL     OW25899   5.339   2.841   3.698 -0.6033  0.1780  0.1748
 6532SOL    HW225900   5.396   2.866   3.625  0.7679 -1.1477  0.7146
 6532SOL    HW325901   5.385   2.873   3.775 -2.4730  2.3548  0.4985
 6532SOL    MW425902   5.353   2.848   3.698  0.4213 -0.0520  0.0514
 6533SOL     OW25903   4.373   3.589   4.645 -0.4435 -0.8787  0.1278
 6533SOL    HW225904   4.416   3.601   4.561 -0.2477 -0.8418  0.2330
 6533SOL    HW325905   4.290   3.545   4.624  0.3292 -2.3864  0.0672
 6533SOL    MW425906   4.368   3.584   4.631  0.1539 -0.2611  0.1509
 6534SOL     OW25907   2.077   3.049   3.360  0.7076 -0.7434  0.4044
 6534SOL    HW225908   2.016   2.979   3.341  1.1103 -0.8458 -0.5616
 6534SOL    HW325909   2.163   3.015   3.334  0.8475  0.2631 -0.5520
 6534SOL    MW425910   2.081   3.036   3.354  0.1403  0.1896 -0.4002
 6535SOL     OW25911   5.887   4.877   1.251 -0.2836 -0.8160  0.2771
 6535SOL    HW225912   5.866   4.804   1.193  0.0676 -0.5508 -0.1843
 6535SOL    HW325913   5.975   4.857   1.284  0.4136  0.0790 -0.9451
 6535SOL    MW425914   5.896   4.865   1.248 -0.6250  0.7067 -0.3439
 6536SOL     OW25915   3.209   4.326   4.829  0.9137 -0.2093 -0.0641
 6536SOL    HW225916   3.202   4.419   4.850  0.0279  0.3199 -2.4052
 6536SOL    HW325917   3.252   4.287   4.905  0.8549  2.0178  1.1789
 6536SOL    MW425918   3.214   4.333   4.842 -0.0711 -0.0071 -0.2186
 6537SOL     OW25919   2.902   2.742   5.136 -0.6992 -0.1219  0.0215
 6537SOL    HW225920   2.891   2.748   5.231 -0.0344  2.5240  0.0061
 6537SOL    HW325921   2.966   2.672   5.124 -0.4806 -0.2204  1.5503
 6537SOL    MW425922   2.909   2.733   5.147  0.3778 -0.3047  0.0570
 6538SOL     OW25923   0.252   4.155   5.755  0.1331 -0.0636 -0.4295
 6538SOL    HW225924   0.184   4.197   5.806 -0.0488 -0.1550 -0.5970
 6538SOL    HW325925   0.334   4.182   5.797  0.0033  0.2040 -0.3504
 6538SOL    MW425926   0.254   4.164   5.767  0.5329 -0.5677  0.6163
 6539SOL     OW25927   5.984   1.416   0.986  0.4652  0.0910 -0.1363
 6539SOL    HW225928   6.052   1.428   1.052  0.2370  1.6882 -0.1503
 6539SOL    HW325929   5.902   1.429   1.033  0.1654 -1.3604 -0.2169
 6539SOL    MW425930   5.982   1.419   1.001 -1.2265 -0.7139 -0.6406
 6540SOL     OW25931   1.249   0.142   4.081 -0.4374  0.4108 -0.1686
 6540SOL    HW225932   1.182   0.209   4.069  0.7755  1.5106 -0.9783
 6540SOL    HW325933   1.254   0.099   3.995 -1.1276 -0.6850  0.3103
 6540SOL    MW425934   1.241   0.145   4.068 -0.2607 -0.0067 -0.4093
 6541SOL     OW25935   0.749   1.702   2.114  0.0258  0.2385  1.0747
 6541SOL    HW225936   0.823   1.745   2.156 -0.2035  0.4998  1.2177
 6541SOL    HW325937   0.677   1.766   2.121 -0.7460 -0.7353  2.6445
 6541SOL    MW425938   0.749   1.716   2.120  1.1037  0.1614 -0.3932
 6542SOL     OW25939   2.998   2.988   5.063 -0.5128  0.2807  0.0192
 6542SOL    HW225940   2.997   2.899   5.097 -1.0391  1.2399  2.7467
 6542SOL    HW325941   2.907   3.005   5.038 -0.6781  0.4419  0.7003
 6542SOL    MW425942   2.986   2.979   5.064 -0.0234  0.0055  0.3389
 6543SOL     OW25943   2.663   2.517   2.256 -0.1417 -0.2448  1.0289
 6543SOL    HW225944   2.683   2.546   2.167 -0.1536 -1.1043  0.7334
 6543SOL    HW325945   2.738   2.462   2.280  0.9073  1.6302  2.3648
 6543SOL    MW425946   2.676   2.514   2.247 -0.2249 -0.9015 -0.0790
 6544SOL     OW25947   1.317   1.339   0.050 -0.2140  0.5431  0.1963
 6544SOL    HW225948   1.226   1.314   0.071 -0.7949  0.1002 -2.4549
 6544SOL    HW325949   1.370   1.278   0.101 -1.5176 -1.3589 -0.5701
 6544SOL    MW425950   1.312   1.327   0.060  0.1323 -0.0699 -0.0747
 6545SOL     OW25951   1.968   3.663   0.885 -0.1628 -0.7109  0.3987
 6545SOL    HW225952   2.009   3.737   0.928  0.0280 -0.6033  0.0413
 6545SOL    HW325953   2.009   3.660   0.798 -1.2109 -0.3366 -0.1283
 6545SOL    MW425954   1.979   3.672   0.879 -0.4383 -0.1951  0.4191
 6546SOL     OW25955   5.186   5.874   1.990  0.3779  0.5131  0.0054
 6546SOL    HW225956   5.256   5.926   2.029  1.3402 -0.8346  0.1184
 6546SOL    HW325957   5.229   5.798   1.953 -0.9541 -0.0210 -0.5294
 6546SOL    MW425958   5.201   5.871   1.991 -0.0680  0.3226  0.1340
 6547SOL     OW25959   3.587   4.142   4.196 -0.5141 -0.2503 -0.2034
 6547SOL    HW225960   3.504   4.167   4.156 -0.9732 -0.7672  0.3961
 6547SOL    HW325961   3.628   4.084   4.132 -0.5372  0.1355 -0.5716
 6547SOL    MW425962   3.582   4.137   4.183  0.1602 -0.7948 -0.3885
 6548SOL     OW25963   2.880   2.444   4.514 -0.3073 -0.1518  0.0376
 6548SOL    HW225964   2.847   2.354   4.512 -0.4314 -0.1222  0.5583
 6548SOL    HW325965   2.813   2.495   4.467 -0.3978 -0.2844  0.0217
 6548SOL    MW425966   2.867   2.439   4.508  0.8546  0.3155 -0.4342
 6549SOL     OW25967   0.299   3.940   3.646 -0.4089  0.1543 -0.9127
 6549SOL    HW225968   0.377   3.980   3.685 -1.0332  0.2812  0.2516
 6549SOL    HW325969   0.318   3.847   3.644 -0.6200  0.0661  0.3528
 6549SOL    MW425970   0.312   3.933   3.651 -0.0924  0.4231  0.0541
 6550SOL     OW25971   3.581   2.530   5.480  0.3919 -0.1245  0.5911
 6550SOL    HW225972   3.562   2.442   5.514 -1.4154  0.2381  0.6251
 6550SOL    HW325973   3.604   2.515   5.388  0.5304 -0.6730  0.7116
 6550SOL    MW425974   3.582   2.516   5.472  0.2493 -0.1953 -0.1614
 6551SOL     OW25975   4.198   5.717   1.447  0.1045 -0.2639 -0.6841
 6551SOL    HW225976   4.244   5.633   1.450  1.8245  0.5231 -2.2902
 6551SOL    HW325977   4.159   5.727   1.533  0.4962 -2.3545 -0.2146
 6551SOL    MW425978   4.199   5.707   1.459  0.1024  0.2236 -0.6791
 6552SOL     OW25979   3.619   0.862   5.741 -0.3096 -0.1717 -0.6878
 6552SOL    HW225980   3.533   0.892   5.768 -0.8586 -1.2562 -1.1540
 6552SOL    HW325981   3.674   0.940   5.744 -0.8616  0.1913  1.3508
 6552SOL    MW425982   3.615   0.876   5.745 -0.1466 -0.9642  0.0482
 6553SOL     OW25983   4.329   1.185   2.848 -0.7550 -0.1665  0.1260
 6553SOL    HW225984   4.269   1.200   2.774  0.5045 -1.0750 -1.1218
 6553SOL    HW325985   4.321   1.092   2.867 -2.4013  0.3489  2.3969
 6553SOL    MW425986   4.320   1.175   2.840 -0.5110 -0.1862  0.4364
 6554SOL     OW25987   1.820   1.605   1.403 -0.8029  0.3087 -0.5091
 6554SOL    HW225988   1.777   1.640   1.325 -1.2156  0.4889 -0.2062
 6554SOL    HW325989   1.751   1.554   1.447 -0.0889 -1.3761 -1.2310
 6554SOL    MW425990   1.805   1.603   1.399  0.3887  0.3899  0.0832
 6555SOL     OW25991   4.164   3.287   4.945 -0.4312  0.7943  0.5484
 6555SOL    HW225992   4.188   3.257   4.858 -1.2398  0.8355  0.2973
 6555SOL    HW325993   4.138   3.379   4.932 -0.1124  0.9404  0.9157
 6555SOL    MW425994   4.164   3.295   4.932  0.4042  0.1178 -0.0600
 6556SOL     OW25995   1.442   3.366   0.606  0.5131  0.4204  0.3238
 6556SOL    HW225996   1.516   3.355   0.547 -0.2380 -0.3350 -0.4884
 6556SOL    HW325997   1.378   3.415   0.555 -0.2135 -0.3965  0.4447
 6556SOL    MW425998   1.443   3.371   0.592  0.4064 -0.5724  0.0751
 6557SOL     OW25999   0.033   5.605   2.552 -0.7323 -0.2114  0.3021
 6557SOL    HW226000   0.004   5.517   2.528  0.3915  0.2421 -3.2578
 6557SOL    HW326001   0.127   5.595   2.571 -0.4763  0.2665 -0.6611
 6557SOL    MW426002   0.042   5.592   2.552  0.2524  0.1885 -0.4139
 6558SOL     OW26003   3.115   1.304   1.217  0.4499  0.1401  0.8330
 6558SOL    HW226004   3.101   1.378   1.276 -0.3554  0.2479  0.5135
 6558SOL    HW326005   3.190   1.258   1.255  0.6469  0.8315  1.3158
 6558SOL    MW426006   3.123   1.308   1.230  0.2260  0.4991  0.1058
 6559SOL     OW26007   4.311   4.040   2.243 -0.3091  0.0025  0.1240
 6559SOL    HW226008   4.349   4.093   2.313 -1.8323  0.9245  0.2958
 6559SOL    HW326009   4.376   4.043   2.173 -0.5743  2.6708 -0.1119
 6559SOL    MW426010   4.325   4.047   2.243  0.2144 -0.3848 -0.3343
 6560SOL     OW26011   1.027   0.659   3.810 -0.5913  0.3594 -0.3493
 6560SOL    HW226012   0.950   0.611   3.779 -0.4481 -0.8487  1.0004
 6560SOL    HW326013   0.993   0.742   3.841 -1.5997 -0.6195  1.3368
 6560SOL    MW426014   1.013   0.663   3.810 -0.5443 -0.5141 -0.0961
 6561SOL     OW26015   1.196   1.367   3.622 -0.4192 -0.2669 -0.5667
 6561SOL    HW226016   1.275   1.313   3.628 -0.2135 -0.2068 -2.1423
 6561SOL    HW326017   1.193   1.414   3.705  0.6927 -0.9627 -0.1012
 6561SOL    MW426018   1.206   1.366   3.634  0.2105 -0.1645  0.0806
 6562SOL     OW26019   0.652   2.745   4.626 -0.3709  0.9273  0.0849
 6562SOL    HW226020   0.663   2.813   4.693 -0.7156  0.5007  0.5816
 6562SOL    HW326021   0.585   2.780   4.567  1.4431  2.2541 -1.2873
 6562SOL    MW426022   0.645   2.759   4.627 -0.0545 -0.8157  0.1120
 6563SOL     OW26023   5.595   4.278   3.743  0.3137  0.2731  0.4637
 6563SOL    HW226024   5.568   4.198   3.698  1.2423  0.0452  0.3080
 6563SOL    HW326025   5.541   4.347   3.703  0.4258 -0.0769 -0.3005
 6563SOL    MW426026   5.584   4.276   3.732 -0.1243 -0.5672 -0.2533
 6564SOL     OW26027   3.128   3.919   3.859 -0.5485  0.1244  0.0482
 6564SOL    HW226028   3.093   3.830   3.859 -0.6957  0.1809 -0.4813
 6564SOL    HW326029   3.068   3.968   3.916 -1.2839  0.1987 -0.7696
 6564SOL    MW426030   3.115   3.913   3.867  0.5260  0.3657  0.3159
 6565SOL     OW26031   0.004   3.169   4.233  0.2737 -0.0954 -0.1183
 6565SOL    HW226032   0.071   3.197   4.170  0.7515 -3.3332 -1.2197
 6565SOL    HW326033   0.049   3.173   4.318  1.7926 -1.6651 -0.7704
 6565SOL    MW426034   0.019   3.173   4.236 -0.4545 -0.2022  0.0968
 6566SOL     OW26035   1.181   4.337   5.814  0.4525 -0.0122  0.2748
 6566SOL    HW226036   1.177   4.245   5.840  0.7444  0.1128  0.7683
 6566SOL    HW326037   1.195   4.385   5.895  0.0816  0.4913  0.0468
 6566SOL    MW426038   1.183   4.331   5.828 -0.5745 -0.6306  0.3718
 6567SOL     OW26039   4.127   4.133   4.551  0.3442 -0.7327 -0.7091
 6567SOL    HW226040   4.181   4.194   4.501  0.7442  1.1381  1.8460
 6567SOL    HW326041   4.191   4.075   4.595  0.1407 -0.5519 -0.1690
 6567SOL    MW426042   4.143   4.133   4.550  0.0565  0.3747  0.0554
 6568SOL     OW26043   4.806   0.385   2.948  0.2398 -0.3817  0.0697
 6568SOL    HW226044   4.794   0.363   2.855 -0.1113 -3.0105  0.6859
 6568SOL    HW326045   4.723   0.424   2.974  0.3070  0.2879 -0.6728
 6568SOL    MW426046   4.793   0.387   2.939  0.1342  0.0903 -0.0127
 6569SOL     OW26047   1.907   4.710   5.028  0.0461  0.1715 -0.5295
 6569SOL    HW226048   1.853   4.787   5.047 -0.4474 -0.2752 -0.1006
 6569SOL    HW326049   1.850   4.652   4.977 -0.1436 -0.6420  0.5855
 6569SOL    MW426050   1.892   4.712   5.023 -0.0394  0.0508  0.1182
 6570SOL     OW26051   5.629   2.144   0.690 -0.3358 -0.0360 -0.2017
 6570SOL    HW226052   5.594   2.208   0.628 -0.2451 -0.0182 -0.2339
 6570SOL    HW326053   5.600   2.060   0.657 -1.5194  0.0599  0.5073
 6570SOL    MW426054   5.621   2.142   0.678 -0.2643  0.4364 -0.1677
 6571SOL     OW26055   1.622   0.146   1.798 -0.5083 -0.1005 -0.4704
 6571SOL    HW226056   1.681   0.086   1.844 -0.9954  0.0265  0.3579
 6571SOL    HW326057   1.648   0.141   1.707  1.9607  1.2964  0.0826
 6571SOL    MW426058   1.633   0.137   1.792  0.3595 -0.0453  0.2310
 6572SOL     OW26059   4.766   0.949   3.490 -0.4988  0.1335  0.2688
 6572SOL    HW226060   4.853   0.915   3.512  0.1589  1.5481  0.0040
 6572SOL    HW326061   4.752   0.923   3.399  0.8315  2.1018 -0.5673
 6572SOL    MW426062   4.776   0.941   3.481 -0.3464  0.1175 -0.3657
 6573SOL     OW26063   0.521   2.666   3.618  0.0935 -0.0407 -0.3615
 6573SOL    HW226064   0.503   2.579   3.651  1.0647 -0.5497 -1.1189
 6573SOL    HW326065   0.573   2.652   3.539 -0.6384  1.1815 -1.1051
 6573SOL    MW426066   0.525   2.653   3.612 -0.2725  0.0735  0.1177
 6574SOL     OW26067   0.434   3.528   2.768 -0.1205  0.4202  0.0027
 6574SOL    HW226068   0.483   3.592   2.715 -0.9192 -0.1951 -1.5193
 6574SOL    HW326069   0.453   3.444   2.727  0.2358 -0.2523  1.4799
 6574SOL    MW426070   0.443   3.525   2.755 -0.7052  0.0337 -0.5093
 6575SOL     OW26071   4.947   1.370   3.318 -0.0351 -0.1053 -0.0234
 6575SOL    HW226072   4.965   1.296   3.376  2.7616  2.1996  2.4161
 6575SOL    HW326073   4.962   1.447   3.373  0.4005  2.2976 -3.2325
 6575SOL    MW426074   4.952   1.371   3.333  0.1162  0.5066  0.0879
 6576SOL     OW26075   2.523   5.723   5.187  0.3794  0.1717 -0.6002
 6576SOL    HW226076   2.465   5.685   5.120 -0.9651  0.2470  0.4899
 6576SOL    HW326077   2.552   5.806   5.148 -2.0185  1.2299 -0.3590
 6576SOL    MW426078   2.519   5.729   5.173  0.4340  0.2735 -0.1553
 6577SOL     OW26079   3.603   4.610   3.240  0.4169 -0.1258 -0.3823
 6577SOL    HW226080   3.521   4.618   3.289  0.2977 -1.9935 -0.2212
 6577SOL    HW326081   3.576   4.600   3.149  0.5443  0.8417 -0.5345
 6577SOL    MW426082   3.589   4.610   3.235  0.7330 -0.2935  0.7365
 6578SOL     OW26083   0.667   0.721   2.705 -0.0362 -0.4924  0.4637
 6578SOL    HW226084   0.666   0.791   2.640  0.0433  0.6677  1.6608
 6578SOL    HW326085   0.577   0.717   2.737 -0.9305 -3.2671 -1.8900
 6578SOL    MW426086   0.655   0.729   2.701  0.4586  0.2904  0.1863
 6579SOL     OW26087   2.501   2.042   6.205  0.4522  0.1976  0.1452
 6579SOL    HW226088   2.437   1.989   6.158 -0.6199 -0.0887  1.8525
 6579SOL    HW326089   2.497   2.127   6.162  0.5632 -0.4344 -1.1834
 6579SOL    MW426090   2.492   2.046   6.193  0.3071 -0.4918  0.6716
 6580SOL     OW26091   4.593   0.612   3.519  0.1123 -0.1181  0.2167
 6580SOL    HW226092   4.669   0.592   3.573 -0.7683 -4.4301  0.1680
 6580SOL    HW326093   4.623   0.601   3.429  0.2382  1.7347 -0.0022
 6580SOL    MW426094   4.607   0.608   3.514  0.0628  0.1405 -0.2308
 6581SOL     OW26095   5.178   6.234   4.012  0.2448 -0.2079 -0.0681
 6581SOL    HW226096   5.203   6.168   4.077 -1.1649  0.7709  1.5756
 6581SOL    HW326097   5.085   6.221   3.998 -0.4380  2.2954  1.4790
 6581SOL    MW426098   5.169   6.224   4.019 -0.3619 -0.2899  0.0404
 6582SOL     OW26099   5.313   4.625   5.231  0.2620 -0.6064  0.3376
 6582SOL    HW226100   5.358   4.658   5.309 -1.7455 -1.1307  1.7836
 6582SOL    HW326101   5.318   4.698   5.168  1.8632 -0.1583  0.9222
 6582SOL    MW426102   5.320   4.639   5.233 -0.5868  0.5979 -0.0085
 6583SOL     OW26103   1.197   3.617   4.261  0.5575 -0.2326 -0.4057
 6583SOL    HW226104   1.147   3.600   4.340  0.0536 -0.0228 -0.6776
 6583SOL    HW326105   1.190   3.537   4.209  1.0928 -0.4626 -0.1387
 6583SOL    MW426106   1.190   3.605   4.264 -0.2542  0.1920  0.4097
 6584SOL     OW26107   4.039   1.470   1.864 -0.4618 -0.1903 -0.1644
 6584SOL    HW226108   3.993   1.421   1.796  0.5741 -0.1071 -0.9581
 6584SOL    HW326109   4.132   1.451   1.849 -0.1129  1.0927  0.2162
 6584SOL    MW426110   4.045   1.461   1.853 -0.2820 -0.1825 -0.2178
 6585SOL     OW26111   3.724   3.940   4.606  0.3115 -0.2468  0.1844
 6585SOL    HW226112   3.792   3.946   4.673 -0.1700  1.2233  0.5889
 6585SOL    HW326113   3.749   4.005   4.540 -0.5815  0.1927  0.2581
 6585SOL    MW426114   3.736   3.949   4.606 -0.1582 -0.1929 -0.2949
 6586SOL     OW26115   4.256   3.311   0.755 -0.4312  0.2548 -0.0443
 6586SOL    HW226116   4.216   3.398   0.745 -2.5385 -0.4703  1.4960
 6586SOL    HW326117   4.263   3.299   0.850  1.7202 -0.4945 -0.2474
 6586SOL    MW426118   4.252   3.321   0.766 -0.0727  0.1264 -0.4041
 6587SOL     OW26119   3.517   2.608   3.689  0.4214  0.4747  0.0918
 6587SOL    HW226120   3.541   2.613   3.782  1.1784 -0.1169 -0.0634
 6587SOL    HW326121   3.487   2.697   3.668  0.4893  0.6849  0.8346
 6587SOL    MW426122   3.516   2.621   3.698  0.2152 -0.1944  0.3668
 6588SOL     OW26123   3.417   1.901   1.217 -0.3310  0.3834  0.5707
 6588SOL    HW226124   3.370   1.818   1.221  0.1193  0.1711  1.6558
 6588SOL    HW326125   3.509   1.876   1.220 -0.1933  0.9252  0.8567
 6588SOL    MW426126   3.423   1.887   1.218  0.2915  0.1519 -0.2753
 6589SOL     OW26127   1.394   4.751   0.638  0.0625 -0.5290  0.1695
 6589SOL    HW226128   1.446   4.740   0.718  1.5395  2.1196 -0.3142
 6589SOL    HW326129   1.457   4.780   0.572 -1.7025  0.8081 -1.0059
 6589SOL    MW426130   1.409   4.753   0.640  0.3994 -0.3909  0.0917
 6590SOL     OW26131   4.729   3.031   1.801 -0.3780 -0.2654 -0.1825
 6590SOL    HW226132   4.766   3.108   1.757  0.2452 -0.8850 -0.7692
 6590SOL    HW326133   4.651   3.010   1.751 -0.2500 -0.3351 -0.3546
 6590SOL    MW426134   4.724   3.038   1.789 -0.2340  0.3391  0.2870
 6591SOL     OW26135   5.656   0.922   0.744  0.1442 -0.2254  0.8312
 6591SOL    HW226136   5.690   0.867   0.815  0.3155  0.7000  1.4911
 6591SOL    HW326137   5.683   0.878   0.664 -2.2069 -2.6912  1.2387
 6591SOL    MW426138   5.664   0.909   0.743  0.0427  0.1116 -0.4133
 6592SOL     OW26139   4.350   3.044   2.114 -0.2875  0.0333  0.2651
 6592SOL    HW226140   4.394   3.127   2.092 -1.1543  0.5636  0.5056
 6592SOL    HW326141   4.290   3.029   2.041 -0.8123  0.1013  0.6840
 6592SOL    MW426142   4.348   3.053   2.102 -0.5557 -0.2870  0.2879
 6593SOL     OW26143   5.269   3.533   5.052  0.0323 -0.6142  0.5377
 6593SOL    HW226144   5.213   3.469   5.095 -1.7732  0.7326  0.2911
 6593SOL    HW326145   5.297   3.593   5.121  0.5102 -0.8062  0.5173
 6593SOL    MW426146   5.266   3.532   5.066 -0.6389  0.0418 -0.4277
 6594SOL     OW26147   5.706   5.998   3.832  0.3371  0.1954  0.1135
 6594SOL    HW226148   5.756   6.028   3.756  1.0202 -1.5374 -0.1806
 6594SOL    HW326149   5.734   6.054   3.904  0.5258  1.1264 -0.6655
 6594SOL    MW426150   5.716   6.009   3.831  0.3526 -0.8318  0.5380
 6595SOL     OW26151   0.160   0.768   1.922 -0.3010 -0.2133  0.5504
 6595SOL    HW226152   0.247   0.764   1.883 -0.8102 -3.9844 -0.5946
 6595SOL    HW326153   0.171   0.823   2.000  2.6385  0.8853 -0.4995
 6595SOL    MW426154   0.173   0.775   1.927  0.5636 -0.0241 -0.0280
 6596SOL     OW26155   0.360   5.178   1.185  0.1869  0.2866  0.1918
 6596SOL    HW226156   0.448   5.187   1.222 -0.2642  1.7181  1.0071
 6596SOL    HW326157   0.368   5.215   1.097  0.3948  0.4876  0.2903
 6596SOL    MW426158   0.373   5.184   1.178  0.3699 -0.6866 -0.2983
 6597SOL     OW26159   2.518   1.622   6.268  0.5343 -0.0737 -0.1842
 6597SOL    HW226160   2.574   1.694   6.296 -0.5581  1.5070 -1.8195
 6597SOL    HW326161   2.439   1.629   6.322  0.9476 -0.9183  0.5703
 6597SOL    MW426162   2.515   1.632   6.279 -0.0569 -0.2282 -0.2874
 6598SOL     OW26163   6.125   2.418   6.223  0.0460  0.2408 -0.3673
 6598SOL    HW226164   6.063   2.439   6.293  0.8926 -1.3679  0.9545
 6598SOL    HW326165   6.145   2.502   6.182 -1.5804  1.0307  0.3658
 6598SOL    MW426166   6.119   2.432   6.227  0.2053 -0.1266 -0.2748
 6599SOL     OW26167   1.003   2.164   0.664  0.0123 -0.1368 -0.1727
 6599SOL    HW226168   0.984   2.079   0.703 -1.6330  0.1135 -0.3887
 6599SOL    HW326169   1.047   2.143   0.581  1.1362 -0.7168  0.5469
 6599SOL    MW426170   1.007   2.150   0.658  0.1703  0.2344  0.6568
 6600SOL     OW26171   2.053   2.597   0.585 -0.4908  0.4836 -0.3344
 6600SOL    HW226172   2.023   2.542   0.658 -0.5833  0.1596 -0.6123
 6600SOL    HW326173   2.004   2.564   0.509 -0.2841  0.7189 -0.5705
 6600SOL    MW426174   2.042   2.585   0.584  0.1466  0.7469 -0.1013
 6601SOL     OW26175   2.475   4.599   3.923  0.4224  0.2376 -0.0477
 6601SOL    HW226176   2.513   4.680   3.888  1.2722  0.0689  0.4723
 6601SOL    HW326177   2.406   4.629   3.982  0.4399  0.5713 -0.1925
 6601SOL    MW426178   2.471   4.614   3.926 -0.6005  0.2148  0.1340
 6602SOL     OW26179   1.981   6.213   1.971  0.7601  0.0318  1.0055
 6602SOL    HW226180   1.969   6.275   2.043  0.7370  1.9644 -0.5742
 6602SOL    HW326181   1.920   6.242   1.903  3.0677  0.3834 -1.0789
 6602SOL    MW426182   1.972   6.225   1.972 -0.1770 -0.5040 -0.9629
 6603SOL     OW26183   2.104   3.987   1.475 -0.1170  0.0805  0.0747
 6603SOL    HW226184   2.146   4.016   1.393 -0.0067  1.0479  0.4626
 6603SOL    HW326185   2.175   3.945   1.524  0.2342  1.0689  0.4197
 6603SOL    MW426186   2.119   3.985   1.470  0.3600 -0.3450  0.4776
 6604SOL     OW26187   5.502   5.199   2.304  0.2546  0.2825 -0.0901
 6604SOL    HW226188   5.503   5.104   2.289  2.8600  0.0152  1.2155
 6604SOL    HW326189   5.470   5.209   2.394  0.6320  0.5894  0.0130
 6604SOL    MW426190   5.498   5.188   2.314 -0.2076 -0.0903  0.4819
 6605SOL     OW26191   5.778   4.860   2.330 -0.3265  0.0995 -0.0128
 6605SOL    HW226192   5.814   4.825   2.411  1.8456  0.8812 -0.5647
 6605SOL    HW326193   5.755   4.783   2.278  0.5898 -0.4547  0.3785
 6605SOL    MW426194   5.779   4.845   2.334  0.0200  0.0395 -0.5602
 6606SOL     OW26195   0.074   5.035   0.701  0.1482 -0.3852 -0.4509
 6606SOL    HW226196  -0.002   4.990   0.664 -0.6394 -0.1492  0.8136
 6606SOL    HW326197   0.060   5.031   0.796  0.9267  1.0299 -0.2568
 6606SOL    MW426198   0.062   5.028   0.709 -0.0418  0.1084  0.2134
 6607SOL     OW26199   0.228   2.937   1.942  0.0929  0.1816  0.4680
 6607SOL    HW226200   0.238   2.936   1.847  2.3359  1.4245  0.6208
 6607SOL    HW326201   0.267   2.854   1.971  0.0989  0.1397  0.3403
 6607SOL    MW426202   0.235   2.926   1.934 -0.0936 -0.3347  0.2894
 6608SOL     OW26203   0.621   2.148   0.713 -0.4857 -0.1475  0.1784
 6608SOL    HW226204   0.543   2.150   0.658 -1.4096 -0.0684  1.4286
 6608SOL    HW326205   0.682   2.210   0.673 -0.7672 -0.7504 -1.2201
 6608SOL    MW426206   0.619   2.157   0.701 -0.5734 -0.3271  0.0974
 6609SOL     OW26207   2.940   5.657   1.273 -0.1662 -0.3840 -0.0270
 6609SOL    HW226208   3.006   5.653   1.204 -1.0251  0.3567 -0.9139
 6609SOL    HW326209   2.959   5.581   1.328  0.9122 -0.6410 -0.7162
 6609SOL    MW426210   2.951   5.646   1.271 -0.0128 -0.2169  0.0346
 6610SOL     OW26211   0.893   0.379   6.150  0.3559  0.3059 -0.0808
 6610SOL    HW226212   0.921   0.469   6.167  1.6154  0.1643 -1.2314
 6610SOL    HW326213   0.829   0.387   6.079  0.4857  0.2888 -0.1995
 6610SOL    MW426214   0.888   0.392   6.143 -0.0997 -0.3498  0.1953
 6611SOL     OW26215   1.743   2.281   2.843 -0.0440  0.2023  0.2651
 6611SOL    HW226216   1.820   2.337   2.856 -0.6208  0.8353  1.1338
 6611SOL    HW326217   1.669   2.338   2.866 -0.7376 -0.5220 -0.1516
 6611SOL    MW426218   1.743   2.296   2.848  0.6658  0.3673  0.0125
 6612SOL     OW26219   4.115   1.651   5.784 -0.0795 -1.0554 -0.4172
 6612SOL    HW226220   4.092   1.700   5.705  1.4770  1.3379  0.4775
 6612SOL    HW326221   4.031   1.626   5.822 -0.9815  0.5214 -1.2293
 6612SOL    MW426222   4.101   1.654   5.778 -0.2644 -0.1641 -0.1239
 6613SOL     OW26223   1.510   0.026   5.272  0.4910 -0.0452 -0.3089
 6613SOL    HW226224   1.473   0.020   5.360  0.1140 -1.2609 -0.5322
 6613SOL    HW326225   1.487   0.114   5.242 -0.8233 -0.2080  0.1747
 6613SOL    MW426226   1.502   0.037   5.280 -0.0412 -0.8337 -0.3394
 6614SOL     OW26227   4.701   0.061   2.827 -0.8979  0.0996  0.4450
 6614SOL    HW226228   4.728  -0.003   2.894 -0.4742 -1.6401 -1.2919
 6614SOL    HW326229   4.608   0.043   2.815 -1.1652  0.9663  1.0925
 6614SOL    MW426230   4.692   0.050   2.834 -0.8309  0.3376 -0.1815
 6615SOL     OW26231   6.220   4.129   5.029 -0.2844 -0.3638  0.7579
 6615SOL    HW226232   6.150   4.154   4.969  0.3701  0.0284  0.1529
 6615SOL    HW326233   6.179   4.132   5.116 -0.8787  0.3488  0.4600
 6615SOL    MW426234   6.205   4.132   5.033 -0.0310 -0.1372  0.1995
 6616SOL     OW26235   3.155   3.603   3.875 -0.4343 -0.3328  0.3518
 6616SOL    HW226236   3.158   3.508   3.862 -1.7965 -0.8480  3.0502
 6616SOL    HW326237   3.184   3.616   3.965 -0.0329  1.8706 -0.0441
 6616SOL    MW426238   3.159   3.592   3.885  0.2279 -0.2052 -0.0211
 6617SOL     OW26239   2.052   2.814   6.143 -0.0218 -0.5050 -0.8395
 6617SOL    HW226240   2.033   2.740   6.201 -1.6069 -1.0996 -2.0408
 6617SOL    HW326241   2.026   2.891   6.193 -1.9619 -1.0505 -0.9272
 6617SOL    MW426242   2.046   2.814   6.157 -0.4483 -0.5282 -0.1540
 6618SOL     OW26243   3.202   2.684   3.127  0.2327  0.1157  0.5138
 6618SOL    HW226244   3.242   2.728   3.052  1.3144 -0.8666  0.4795
 6618SOL    HW326245   3.120   2.731   3.142  1.2015  1.9566  0.3149
 6618SOL    MW426246   3.197   2.696   3.119 -0.4025  0.1533 -0.4313
 6619SOL     OW26247   6.161   3.058   0.897 -0.4206  0.0382 -0.2340
 6619SOL    HW226248   6.186   3.022   0.983  1.0114  1.3140 -0.0691
 6619SOL    HW326249   6.163   2.983   0.838 -0.1948 -0.6415  0.6106
 6619SOL    MW426250   6.165   3.044   0.901  0.2078  0.0065 -0.5225
 6620SOL     OW26251   0.050   4.061   2.308 -0.3095 -0.2459 -0.4146
 6620SOL    HW226252   0.130   4.080   2.356  0.1021 -1.9411 -0.3459
 6620SOL    HW326253  -0.001   4.005   2.368 -0.2339 -1.5559 -1.5227
 6620SOL    MW426254   0.054   4.056   2.322 -0.1355 -0.0206 -0.2720
 6621SOL     OW26255   3.747   5.781   0.876  0.2820 -0.0455  0.1898
 6621SOL    HW226256   3.673   5.766   0.936  0.9282 -0.1121  0.9841
 6621SOL    HW326257   3.805   5.840   0.923  0.5048  0.4108 -0.6372
 6621SOL    MW426258   3.745   5.787   0.890 -0.6121 -0.3267  0.2108
 6622SOL     OW26259   3.437   2.194   5.870 -0.2735 -0.1795 -0.5091
 6622SOL    HW226260   3.376   2.170   5.940 -0.5843  1.0349 -0.3404
 6622SOL    HW326261   3.381   2.232   5.802  0.2882  1.3289 -0.1891
 6622SOL    MW426262   3.422   2.196   5.870 -0.5249 -0.0153 -0.4447
 6623SOL     OW26263   2.038   6.220   2.396 -0.2374  0.0931  0.1469
 6623SOL    HW226264   2.067   6.265   2.475  1.6119  0.2894 -0.5757
 6623SOL    HW326265   2.011   6.134   2.425 -1.5840  0.8565  1.2468
 6623SOL    MW426266   2.039   6.215   2.410  0.5170  0.1817  0.5947
 6624SOL     OW26267   4.707   6.247   0.458 -0.6972 -0.5030 -0.4994
 6624SOL    HW226268   4.657   6.259   0.378  0.6020  1.2022 -1.1302
 6624SOL    HW326269   4.722   6.336   0.491 -1.4091 -1.1652  1.7961
 6624SOL    MW426270   4.703   6.261   0.452 -0.3658  0.0887 -0.0866
 6625SOL     OW26271   1.801   2.319   3.158  0.3853  0.3693  0.0142
 6625SOL    HW226272   1.841   2.354   3.078  0.4157 -0.9999 -0.5899
 6625SOL    HW326273   1.711   2.350   3.155  0.3646  0.2644 -0.5843
 6625SOL    MW426274   1.795   2.328   3.147  1.0501 -0.0091 -1.3344
 6626SOL     OW26275   3.538   0.284   2.102  0.1883  0.1607  0.2625
 6626SOL    HW226276   3.491   0.310   2.182  0.2085 -0.9504  0.6576
 6626SOL    HW326277   3.579   0.200   2.125  0.5605  0.0450 -0.7821
 6626SOL    MW426278   3.537   0.276   2.116 -0.0980  0.0249  0.6542
 6627SOL     OW26279   5.111   0.051   3.409  0.1569 -0.1178  0.3654
 6627SOL    HW226280   5.124   0.079   3.318  1.2731 -0.7722  0.3055
 6627SOL    HW326281   5.158  -0.032   3.415 -0.1967 -0.2496  1.4580
 6627SOL    MW426282   5.119   0.044   3.398  0.0132  0.3409  1.0653
 6628SOL     OW26283   0.222   0.579   1.499  0.0514  0.7871 -0.0321
 6628SOL    HW226284   0.234   0.667   1.464  0.0919  0.0758 -1.8783
 6628SOL    HW326285   0.294   0.528   1.463 -2.8008 -1.2564 -3.4727
 6628SOL    MW426286   0.233   0.584   1.490  0.0276  0.3026 -0.4982
 6629SOL     OW26287   2.210   2.656   4.985 -0.2044  0.5447  0.2549
 6629SOL    HW226288   2.146   2.645   4.914  1.5216 -0.6817 -1.2414
 6629SOL    HW326289   2.236   2.747   4.980 -0.0261  0.4488 -0.8082
 6629SOL    MW426290   2.205   2.666   4.975 -0.2359  0.2050 -0.0637
 6630SOL     OW26291   5.859   5.881   5.277  0.4955  0.1501  0.4206
 6630SOL    HW226292   5.798   5.817   5.242  0.5773  0.8838 -1.1535
 6630SOL    HW326293   5.805   5.941   5.328 -0.0108  0.4390 -0.4438
 6630SOL    MW426294   5.844   5.880   5.279 -0.5603 -0.3353  0.5143
 6631SOL     OW26295   2.147   3.128   3.619  0.2251 -0.0392 -0.7262
 6631SOL    HW226296   2.201   3.054   3.646  2.3794  0.8632 -2.2625
 6631SOL    HW326297   2.101   3.097   3.541 -1.5960 -0.8097  0.5855
 6631SOL    MW426298   2.148   3.114   3.612  0.1225  0.2963 -0.5009
 6632SOL     OW26299   4.719   0.071   1.331 -0.0161 -0.1041 -0.0032
 6632SOL    HW226300   4.703   0.158   1.294  1.0899  0.3472  0.5173
 6632SOL    HW326301   4.665   0.012   1.279 -1.4831  0.9925  0.1825
 6632SOL    MW426302   4.710   0.075   1.320 -0.6713 -0.3501  0.3189
 6633SOL     OW26303   4.471   3.492   4.299  0.5519  0.0077 -0.0370
 6633SOL    HW226304   4.416   3.436   4.244 -0.0063 -0.6886  1.1749
 6633SOL    HW326305   4.511   3.431   4.361  1.7805  0.6662 -0.1515
 6633SOL    MW426306   4.469   3.476   4.300  0.4323  0.3547  0.4864
 6634SOL     OW26307   2.880   1.560   4.055  0.1995  0.2918  0.1074
 6634SOL    HW226308   2.887   1.646   4.014  1.8905  0.9596  1.6544
 6634SOL    HW326309   2.879   1.578   4.149  0.0060 -1.3540  0.4563
 6634SOL    MW426310   2.881   1.573   4.062 -0.0568  0.2474 -0.1777
 6635SOL     OW26311   0.867   4.040   0.609 -0.0015 -0.1157  0.2936
 6635SOL    HW226312   0.931   4.015   0.543  0.6095  1.5378  0.1942
 6635SOL    HW326313   0.790   4.066   0.560 -0.5348 -1.4668  0.3831
 6635SOL    MW426314   0.866   4.040   0.594  0.0052  0.0394 -0.0207
 6636SOL     OW26315   2.737   1.074   5.468  0.6234 -0.1347  0.0067
 6636SOL    HW226316   2.650   1.037   5.462  0.9313 -0.8989  0.1816
 6636SOL    HW326317   2.729   1.162   5.430 -0.0416 -0.4885 -0.6710
 6636SOL    MW426318   2.725   1.081   5.462 -0.0198  0.2082 -0.2140
 6637SOL     OW26319   4.527   0.558   6.378 -0.1465 -0.2758  0.1193
 6637SOL    HW226320   4.481   0.639   6.404 -0.5615 -0.3889 -0.2471
 6637SOL    HW326321   4.550   0.572   6.286  1.6585  0.2793  0.6294
 6637SOL    MW426322   4.524   0.571   6.369  0.3676 -0.7327 -1.2176
 6638SOL     OW26323   3.046   0.423   1.451 -0.6137 -0.6121 -0.1544
 6638SOL    HW226324   3.134   0.456   1.468 -1.0289  0.7604 -0.5356
 6638SOL    HW326325   2.988   0.490   1.487 -1.4940 -0.3949 -1.8678
 6638SOL    MW426326   3.050   0.436   1.458  0.3774  0.0688  0.1106
 6639SOL     OW26327   4.590   5.158   4.945  0.1967  0.2534  0.4854
 6639SOL    HW226328   4.593   5.178   5.039 -0.9684  0.8775  0.4181
 6639SOL    HW326329   4.606   5.064   4.940  0.9333  0.3247  1.2495
 6639SOL    MW426330   4.592   5.148   4.957  0.1937 -0.0037 -0.2009
 6640SOL     OW26331   3.765   1.641   5.644 -0.7017  0.0733 -0.8154
 6640SOL    HW226332   3.799   1.588   5.716 -0.4545  1.4067  0.0867
 6640SOL    HW326333   3.836   1.642   5.579 -0.3121  0.1118 -0.3968
 6640SOL    MW426334   3.779   1.634   5.645 -0.1770 -0.0385 -0.4313
 6641SOL     OW26335   0.616   0.830   3.741  0.8042  0.0453 -1.2245
 6641SOL    HW226336   0.704   0.832   3.702  0.8419  0.2780 -1.1270
 6641SOL    HW326337   0.622   0.764   3.809  1.5120  1.5493  0.2335
 6641SOL    MW426338   0.629   0.821   3.745  0.6167  0.1376  0.3883
 6642SOL     OW26339   2.518   5.845   5.645 -0.1107  0.0689 -0.0729
 6642SOL    HW226340   2.459   5.851   5.720  1.3954 -1.4957  1.3007
 6642SOL    HW326341   2.585   5.912   5.661  0.2760 -0.3425  0.0494
 6642SOL    MW426342   2.519   5.855   5.657 -0.3423  0.5855 -0.4762
 6643SOL     OW26343   3.864   4.330   0.591  0.1685  0.2144 -0.2139
 6643SOL    HW226344   3.871   4.234   0.591  0.3832  0.2209 -0.9069
 6643SOL    HW326345   3.942   4.360   0.636 -0.2426  0.0486  0.6208
 6643SOL    MW426346   3.875   4.321   0.597  0.1638  0.0886 -0.4136
 6644SOL     OW26347   4.081   2.080   6.123 -0.1227  0.1818  0.1060
 6644SOL    HW226348   3.999   2.105   6.079  0.8363  1.7349 -0.8695
 6644SOL    HW326349   4.092   1.987   6.101 -1.7641 -0.1595  0.5255
 6644SOL    MW426350   4.071   2.071   6.114 -0.3394  0.0573 -0.7330
 6645SOL     OW26351   2.739   5.316   3.567  0.1068 -0.0542  0.0351
 6645SOL    HW226352   2.788   5.354   3.494  3.2528 -0.0891  1.9481
 6645SOL    HW326353   2.720   5.227   3.540  0.7074  0.1103 -0.9787
 6645SOL    MW426354   2.743   5.309   3.554 -0.1686 -0.1100  0.7674
 6646SOL     OW26355   0.159   3.487   6.392  0.4777 -0.0819  0.6553
 6646SOL    HW226356   0.109   3.422   6.344  0.6111  0.4793 -0.2698
 6646SOL    HW326357   0.124   3.571   6.361  1.7277  0.3104  0.2832
 6646SOL    MW426358   0.148   3.490   6.382  0.3259  0.2825 -0.5180
 6647SOL     OW26359   3.693   4.874   2.804 -0.4472  0.0177 -0.6134
 6647SOL    HW226360   3.613   4.826   2.783  0.6505 -2.3830  0.3912
 6647SOL    HW326361   3.703   4.865   2.899  0.0780  1.8879 -0.4348
 6647SOL    MW426362   3.684   4.867   2.814  0.0789  0.0896  0.2865
 6648SOL     OW26363   6.043   4.262   3.310 -0.0574  0.3751  0.4213
 6648SOL    HW226364   6.091   4.344   3.304 -1.3094  1.0555 -0.9450
 6648SOL    HW326365   6.084   4.215   3.383  0.7006  2.1785  1.2026
 6648SOL    MW426366   6.055   4.266   3.319  0.1995 -0.2300 -0.0680
 6649SOL     OW26367   1.759   3.996   0.427 -0.0588  0.2297  0.0618
 6649SOL    HW226368   1.698   4.052   0.476 -0.3420  0.2770 -0.3357
 6649SOL    HW326369   1.806   4.057   0.370  1.6774  0.4619  1.6495
 6649SOL    MW426370   1.757   4.012   0.426 -0.0922  0.0061  0.1477
 6650SOL     OW26371   1.704   1.917   3.648  0.8532  0.1040  0.0423
 6650SOL    HW226372   1.659   1.932   3.731 -2.2294 -0.2395 -1.3984
 6650SOL    HW326373   1.704   2.003   3.605  1.3951  0.0395 -0.0966
 6650SOL    MW426374   1.698   1.930   3.653  0.4433  0.2328  0.0411
 6651SOL     OW26375   1.019   0.665   2.163 -0.1511  0.1113 -0.3859
 6651SOL    HW226376   1.083   0.594   2.160  1.2971  1.2454  1.5121
 6651SOL    HW326377   1.011   0.694   2.072  2.3302  0.1375 -0.6593
 6651SOL    MW426378   1.026   0.660   2.150 -0.1039 -0.6569  0.0185
 6652SOL     OW26379   3.906   1.942   1.057 -0.5511  0.0083  0.0117
 6652SOL    HW226380   3.849   1.977   0.988 -0.3811  0.8700  0.2919
 6652SOL    HW326381   3.960   2.016   1.083 -0.2112 -0.4604  0.6695
 6652SOL    MW426382   3.905   1.956   1.051 -0.3054  0.9896  0.2487
 6653SOL     OW26383   0.181   5.364   5.962  0.0516 -0.3432 -0.5635
 6653SOL    HW226384   0.177   5.321   5.876  1.4945  0.6036 -1.1516
 6653SOL    HW326385   0.239   5.439   5.948  0.3792 -0.2103  1.2637
 6653SOL    MW426386   0.188   5.368   5.949  0.2701  0.0958 -0.2155
 6654SOL     OW26387   6.300   0.645   4.143 -0.0761  0.2440  0.3153
 6654SOL    HW226388   6.263   0.674   4.060  0.3479  0.1346  0.0854
 6654SOL    HW326389   6.289   0.720   4.201  1.7935  1.2364 -0.5123
 6654SOL    MW426390   6.294   0.658   4.140  0.0040  0.1816  0.0383
 6655SOL     OW26391   6.134   1.082   5.660 -0.1136  0.7789  0.4919
 6655SOL    HW226392   6.077   1.036   5.598 -0.4409  0.3030  1.1291
 6655SOL    HW326393   6.105   1.051   5.746 -0.8562  2.7456  0.9994
 6655SOL    MW426394   6.122   1.072   5.663  0.9493 -0.1498  0.1570
 6656SOL     OW26395   6.345   0.110   5.459  0.1531  0.0109 -0.6194
 6656SOL    HW226396   6.320   0.090   5.550  1.3249 -0.7311 -0.4398
 6656SOL    HW326397   6.341   0.206   5.454 -2.6116 -0.0198 -0.6107
 6656SOL    MW426398   6.341   0.120   5.471 -0.7699 -0.3402 -0.9435
 6657SOL     OW26399   4.319   4.966   4.247  0.2931 -0.3466  0.8094
 6657SOL    HW226400   4.403   4.949   4.205  0.3334 -0.0022  0.7484
 6657SOL    HW326401   4.342   5.000   4.334  0.2598  1.7874  0.0302
 6657SOL    MW426402   4.333   4.968   4.253 -0.3191 -0.4346 -0.2067
 6658SOL     OW26403   0.850   0.923   3.630 -0.2738 -0.1677  0.0314
 6658SOL    HW226404   0.827   0.955   3.543 -1.2350  1.4583  0.8287
 6658SOL    HW326405   0.932   0.969   3.651 -0.4628  0.0548  0.2877
 6658SOL    MW426406   0.858   0.934   3.621  0.5005  0.3197  0.5902
 6659SOL     OW26407   6.417   5.078   1.766 -0.8985 -0.7282 -0.2599
 6659SOL    HW226408   6.504   5.038   1.762  0.1002  1.2916 -0.1879
 6659SOL    HW326409   6.398   5.103   1.676 -0.0783  1.3844  0.1028
 6659SOL    MW426410   6.426   5.076   1.754 -0.5530  0.7633  0.1067
 6660SOL     OW26411   1.241   2.804   1.203  0.1296  0.1157  0.0001
 6660SOL    HW226412   1.314   2.809   1.142  0.1477 -3.0946 -0.4114
 6660SOL    HW326413   1.281   2.801   1.290  0.4948 -1.1493 -0.1971
 6660SOL    MW426414   1.256   2.804   1.206  0.4764  0.0104 -0.2476
 6661SOL     OW26415   2.800   3.610   6.089 -0.0012  0.6250 -0.0888
 6661SOL    HW226416   2.778   3.518   6.080 -1.2126  0.9058 -0.2093
 6661SOL    HW326417   2.734   3.656   6.036 -0.5505  1.6498  1.3972
 6661SOL    MW426418   2.788   3.604   6.081 -0.2629  0.4704  0.1797
 6662SOL     OW26419   6.214   0.896   0.226 -0.6261  0.3786  0.4052
 6662SOL    HW226420   6.192   0.920   0.136 -0.5253  0.0838  0.3029
 6662SOL    HW326421   6.278   0.963   0.254  0.4812 -0.3771 -0.2480
 6662SOL    MW426422   6.220   0.908   0.218 -0.2348 -0.0284  0.0712
 6663SOL     OW26423   2.190   2.315   2.558 -0.2871  0.1263 -0.3422
 6663SOL    HW226424   2.133   2.267   2.498 -1.1052  2.5865 -1.6503
 6663SOL    HW326425   2.230   2.383   2.503 -0.6761  2.1619  1.7556
 6663SOL    MW426426   2.188   2.317   2.542  0.1016  0.1942  0.3068
 6664SOL     OW26427   5.044   5.683   3.409  0.0437  0.2008  1.1459
 6664SOL    HW226428   5.055   5.749   3.341  1.4596 -0.8976  0.2635
 6664SOL    HW326429   4.955   5.649   3.395  0.5856 -0.5940 -0.7522
 6664SOL    MW426430   5.034   5.687   3.398 -0.4878  0.1781  0.3288
 6665SOL     OW26431   4.528   4.433   2.289 -0.5329 -0.4279 -0.3377
 6665SOL    HW226432   4.519   4.358   2.348 -0.7415  0.4946  0.8542
 6665SOL    HW326433   4.619   4.460   2.298 -0.6408 -0.1012 -0.1855
 6665SOL    MW426434   4.539   4.427   2.298  0.4440  0.7767 -0.5387
 6666SOL     OW26435   3.236   6.111   2.655  0.3614  0.6204  0.3445
 6666SOL    HW226436   3.246   6.202   2.682 -0.1651  0.4046  1.3076
 6666SOL    HW326437   3.148   6.108   2.616  0.3854  0.5253  0.2972
 6666SOL    MW426438   3.225   6.123   2.653  0.3641  0.5973  0.3192
 6667SOL     OW26439   2.664   1.845   6.341 -0.2867  0.4049  0.0136
 6667SOL    HW226440   2.751   1.852   6.302 -0.7180  0.9160 -0.8765
 6667SOL    HW326441   2.615   1.917   6.303 -0.6432  1.1058  1.7539
 6667SOL    MW426442   2.669   1.855   6.331  0.3897 -0.2266  0.1529
 6668SOL     OW26443   1.932   3.962   3.488  0.1093 -0.2152 -0.5328
 6668SOL    HW226444   1.887   3.914   3.557 -0.3101  0.9172  0.0114
 6668SOL    HW326445   2.014   3.915   3.475  0.1941 -0.4508  0.7465
 6668SOL    MW426446   1.937   3.950   3.495  0.2379  0.0369 -0.4461
 6669SOL     OW26447   4.462   1.305   5.932  0.0874 -0.0419 -1.2644
 6669SOL    HW226448   4.371   1.321   5.908  0.3500  0.2582 -2.0717
 6669SOL    HW326449   4.478   1.214   5.909 -0.3077 -0.4008 -0.1545
 6669SOL    MW426450   4.452   1.295   5.926 -0.2747  0.3807 -0.7844
 6670SOL     OW26451   5.637   4.907   3.463  0.4682 -0.3409 -0.2803
 6670SOL    HW226452   5.597   4.856   3.394  1.2713 -1.6850  0.2189
 6670SOL    HW326453   5.591   4.881   3.543  1.7163 -1.2491  0.1657
 6670SOL    MW426454   5.626   4.897   3.465 -0.0802  0.0749  0.2618
 6671SOL     OW26455   4.416   5.422   5.153 -0.6377  0.2905  0.0153
 6671SOL    HW226456   4.502   5.464   5.156 -0.1307 -0.2874 -3.1407
 6671SOL    HW326457   4.357   5.490   5.120 -0.7605 -0.1746 -0.7318
 6671SOL    MW426458   4.420   5.437   5.149  0.1770 -0.0331  0.1592
 6672SOL     OW26459   4.309   6.274   5.466  0.0272  0.4697  0.0007
 6672SOL    HW226460   4.345   6.223   5.394 -0.9170 -1.6912  0.9781
 6672SOL    HW326461   4.214   6.269   5.454 -0.1042  2.2260  0.0251
 6672SOL    MW426462   4.301   6.267   5.455 -0.2033 -0.1899  0.5525
 6673SOL     OW26463   0.736   5.856   1.299  0.8440  0.7142 -0.5633
 6673SOL    HW226464   0.713   5.780   1.353 -0.9485 -0.2841 -2.5877
 6673SOL    HW326465   0.660   5.914   1.307  1.8649  1.9624  0.3319
 6673SOL    MW426466   0.723   5.853   1.307  0.1178 -0.4266 -0.3844
 6674SOL     OW26467   3.697   2.325   2.789  0.0177  0.0792 -0.1577
 6674SOL    HW226468   3.767   2.269   2.757 -1.1001 -0.3564 -2.0482
 6674SOL    HW326469   3.683   2.297   2.880  2.3423  0.3031  0.3315
 6674SOL    MW426470   3.704   2.314   2.797 -0.0830 -0.4014 -0.1495
 6675SOL     OW26471   6.283   6.071   4.663 -0.4412 -0.2506 -0.3053
 6675SOL    HW226472   6.301   6.119   4.582 -0.8528 -0.9015 -0.7913
 6675SOL    HW326473   6.268   6.139   4.728 -0.4506  0.2852 -0.8556
 6675SOL    MW426474   6.283   6.086   4.661  0.0239 -0.2353  0.0893
 6676SOL     OW26475   3.582   1.547   4.671 -0.2567 -1.0707 -0.1088
 6676SOL    HW226476   3.590   1.597   4.752  0.8800 -3.3800  1.3269
 6676SOL    HW326477   3.650   1.583   4.614  1.1352 -1.4889  1.2130
 6676SOL    MW426478   3.592   1.558   4.675 -0.4910 -0.0861  0.1138
 6677SOL     OW26479   3.812   4.463   3.323  0.4916  0.7314 -0.5454
 6677SOL    HW226480   3.812   4.372   3.292  0.6246  0.5229  0.0474
 6677SOL    HW326481   3.734   4.502   3.284 -1.4862 -0.5689  1.8498
 6677SOL    MW426482   3.802   4.456   3.313 -0.2550  0.5680  0.8553
 6678SOL     OW26483   3.828   2.662   4.025 -0.3550  0.6164  0.0859
 6678SOL    HW226484   3.756   2.607   3.995  1.3376 -1.0155 -1.2241
 6678SOL    HW326485   3.811   2.675   4.118 -2.0127 -0.2179 -0.0680
 6678SOL    MW426486   3.817   2.657   4.033  0.1734  0.3993 -0.1509
 6679SOL     OW26487   0.258   6.329   0.142  0.0098 -0.8647  0.2889
 6679SOL    HW226488   0.162   6.328   0.136 -0.2524 -0.0793  3.1963
 6679SOL    HW326489   0.281   6.422   0.148  1.2759 -0.8340 -2.8661
 6679SOL    MW426490   0.248   6.341   0.142  0.8645 -0.4247  0.6355
 6680SOL     OW26491   5.727   3.209   1.051 -0.1902  0.3974 -0.0376
 6680SOL    HW226492   5.724   3.304   1.063  0.1665  0.4779 -0.5245
 6680SOL    HW326493   5.635   3.182   1.052 -0.2434  0.5557  1.4467
 6680SOL    MW426494   5.715   3.218   1.052  0.1186  0.4206  0.0847
 6681SOL     OW26495   1.950   0.762   4.433  0.9485 -0.0992 -0.0468
 6681SOL    HW226496   1.976   0.766   4.525  0.5382 -0.7025  0.0990
 6681SOL    HW326497   1.882   0.829   4.424  1.7136  0.6754 -0.1581
 6681SOL    MW426498   1.944   0.771   4.444  0.7537  0.0666 -0.6542
 6682SOL     OW26499   3.747   3.533   1.789  0.3289  0.4947 -0.0711
 6682SOL    HW226500   3.740   3.574   1.875  2.6682  0.8801  0.0093
 6682SOL    HW326501   3.783   3.446   1.807 -0.9699 -0.1778 -0.5578
 6682SOL    MW426502   3.751   3.527   1.803  0.3114 -0.2173 -1.0422
 6683SOL     OW26503   4.846   3.795   0.218 -0.1739  0.1066 -0.7851
 6683SOL    HW226504   4.896   3.768   0.141  1.1543  0.5582 -0.1142
 6683SOL    HW326505   4.774   3.847   0.183  0.1649 -0.0620 -1.7497
 6683SOL    MW426506   4.843   3.799   0.203 -0.6651 -0.0026  0.2287
 6684SOL     OW26507   3.268   3.878   2.775  0.0928 -0.2870  0.0015
 6684SOL    HW226508   3.295   3.852   2.687 -1.0354  1.1984 -0.8318
 6684SOL    HW326509   3.242   3.969   2.766  0.1493 -0.0392  1.9379
 6684SOL    MW426510   3.268   3.886   2.762 -0.1967 -0.2603  0.1553
 6685SOL     OW26511   5.711   5.219   3.918 -0.5949  0.0510 -0.2678
 6685SOL    HW226512   5.792   5.270   3.922 -1.7037  1.8346  1.4364
 6685SOL    HW326513   5.662   5.257   3.845  0.3419 -1.5465 -1.8132
 6685SOL    MW426514   5.715   5.231   3.909 -0.1043 -0.0013 -0.1147
 6686SOL     OW26515   4.799   1.427   1.832 -0.1568 -0.2527 -0.1808
 6686SOL    HW226516   4.744   1.481   1.775 -0.0436  0.4835  0.3882
 6686SOL    HW326517   4.849   1.491   1.884  0.2702 -0.9105  0.2266
 6686SOL    MW426518   4.799   1.443   1.831  0.4706  0.8470 -0.1219
 6687SOL     OW26519   4.726   1.186   5.661  0.2377 -0.1428 -0.0147
 6687SOL    HW226520   4.762   1.106   5.622  1.0692  0.2807 -0.1302
 6687SOL    HW326521   4.801   1.232   5.696 -0.4461 -0.2592  1.6767
 6687SOL    MW426522   4.740   1.181   5.660 -0.6253 -0.3309 -0.4758
 6688SOL     OW26523   5.050   1.525   0.973  0.5629 -0.2033 -0.0127
 6688SOL    HW226524   5.000   1.530   0.891  0.6906  0.9013 -0.0395
 6688SOL    HW326525   5.011   1.451   1.019  0.3577 -0.7264 -0.9832
 6688SOL    MW426526   5.038   1.516   0.968 -0.4634  0.4568 -0.2073
 6689SOL     OW26527   1.509   1.463   3.709 -0.4019 -0.1013  0.5990
 6689SOL    HW226528   1.494   1.385   3.761  1.1840  0.0489  1.3341
 6689SOL    HW326529   1.486   1.437   3.620  1.2449 -1.8242  0.6135
 6689SOL    MW426530   1.504   1.449   3.704 -0.0904 -0.1224 -0.6044
 6690SOL     OW26531   5.494   3.425   1.180 -0.1865  0.1932  0.4783
 6690SOL    HW226532   5.474   3.340   1.142 -0.6012 -0.1071  1.3520
 6690SOL    HW326533   5.483   3.413   1.274  0.4982  1.0099  0.6770
 6690SOL    MW426534   5.490   3.412   1.187 -0.0414 -1.0627 -0.5951
 6691SOL     OW26535   0.774   6.114   5.683 -0.2556 -0.0440 -0.5963
 6691SOL    HW226536   0.731   6.039   5.724  0.0990  0.3721  0.5623
 6691SOL    HW326537   0.704   6.180   5.676  0.1873  0.7393  1.5559
 6691SOL    MW426538   0.759   6.113   5.688  0.0793 -0.1251  0.1064
 6692SOL     OW26539   2.539   1.532   5.634  0.2704 -0.0070 -0.3241
 6692SOL    HW226540   2.560   1.490   5.717 -0.2386 -0.3913 -0.3811
 6692SOL    HW326541   2.507   1.461   5.579 -3.0749  0.7584  0.3937
 6692SOL    MW426542   2.537   1.517   5.637 -0.0890  0.2332  0.2551
 6693SOL     OW26543   0.607   4.549   0.523 -0.0698  0.1366 -0.1408
 6693SOL    HW226544   0.650   4.543   0.608 -1.9112 -0.2393  0.8211
 6693SOL    HW326545   0.572   4.638   0.519 -0.9102 -0.1818 -0.0228
 6693SOL    MW426546   0.608   4.560   0.533 -0.0614 -0.1539  0.7527
 6694SOL     OW26547   4.178   3.542   0.469  0.5431  0.3987 -0.0827
 6694SOL    HW226548   4.250   3.581   0.419  1.7973 -1.2976  0.3238
 6694SOL    HW326549   4.174   3.452   0.438 -1.7213  0.5591 -0.3961
 6694SOL    MW426550   4.187   3.536   0.458 -0.1589  0.4597 -0.1729
 6695SOL     OW26551   1.665   3.105   5.907  0.1650  0.1041  0.2098
 6695SOL    HW226552   1.585   3.063   5.874 -1.0516  1.0203  1.8476
 6695SOL    HW326553   1.708   3.035   5.956 -0.1037 -0.1517  0.0935
 6695SOL    MW426554   1.660   3.090   5.909 -0.6913  1.1348  0.2569
 6696SOL     OW26555   5.698   5.421   1.514  0.4273 -0.6469  0.1238
 6696SOL    HW226556   5.782   5.407   1.558  0.0379  1.0931  1.5205
 6696SOL    HW326557   5.636   5.439   1.585 -1.1445 -1.8041 -0.8791
 6696SOL    MW426558   5.701   5.421   1.529 -0.0382  0.2513  0.3508
 6697SOL     OW26559   2.084   5.684   4.760 -0.2569 -0.2215  0.3872
 6697SOL    HW226560   2.127   5.738   4.827  2.5577 -0.4383 -1.0933
 6697SOL    HW326561   2.012   5.642   4.806  0.0476  1.5281  2.6462
 6697SOL    MW426562   2.080   5.686   4.775 -0.5462 -0.0916  0.1171
 6698SOL     OW26563   5.411   1.549   1.461 -0.3129 -0.2911 -0.4370
 6698SOL    HW226564   5.340   1.500   1.419 -0.2813 -0.1542 -0.6533
 6698SOL    HW326565   5.365   1.614   1.515 -0.3549 -0.6522 -0.0371
 6698SOL    MW426566   5.395   1.551   1.463  0.1910  0.5286 -0.7735
 6699SOL     OW26567   2.511   2.348   2.818 -0.1456  0.1809 -0.7016
 6699SOL    HW226568   2.428   2.344   2.866 -0.2635 -1.7117 -0.9872
 6699SOL    HW326569   2.555   2.425   2.854 -1.9041  1.1044 -0.3880
 6699SOL    MW426570   2.506   2.357   2.829 -0.4251  0.0543 -0.0615
 6700SOL     OW26571   2.357   3.540   3.400 -0.5692  0.7106 -0.1802
 6700SOL    HW226572   2.446   3.516   3.375 -1.5983 -1.3308 -2.2562
 6700SOL    HW326573   2.334   3.480   3.471 -0.7859  0.2274 -0.6564
 6700SOL    MW426574   2.366   3.529   3.406  0.0830  0.4648  0.2614
 6701SOL     OW26575   4.343   3.686   5.725 -0.2222  0.1866  0.2729
 6701SOL    HW226576   4.413   3.738   5.686 -0.8894  0.2934 -0.7978
 6701SOL    HW326577   4.329   3.726   5.811 -0.9596  2.0201 -0.6528
 6701SOL    MW426578   4.351   3.698   5.731 -0.0797 -0.6382 -0.4421
 6702SOL     OW26579   0.659   2.847   1.755  0.0354 -0.4219  0.3862
 6702SOL    HW226580   0.592   2.804   1.701  1.6227 -0.7107 -1.4836
 6702SOL    HW326581   0.613   2.919   1.798 -2.1256 -2.3487  1.5452
 6702SOL    MW426582   0.644   2.850   1.754  0.0006 -0.3854 -0.3397
 6703SOL     OW26583   2.019   3.957   2.347 -0.2354 -0.1600  0.3546
 6703SOL    HW226584   1.934   3.932   2.312  0.8209 -0.3919 -2.2477
 6703SOL    HW326585   2.077   3.884   2.323  1.2218  1.1362 -0.2021
 6703SOL    MW426586   2.016   3.944   2.340  0.5107  0.3957 -0.2282
 6704SOL     OW26587   0.538   1.810   4.338  0.5378  0.5097 -0.5528
 6704SOL    HW226588   0.577   1.886   4.293  2.7678 -0.0726  0.2576
 6704SOL    HW326589   0.604   1.784   4.402 -0.3631 -1.8545 -0.4897
 6704SOL    MW426590   0.552   1.817   4.341  0.0010 -0.1231 -0.0754
 6705SOL     OW26591   5.780   5.665   1.252 -0.0563  0.1011  0.1802
 6705SOL    HW226592   5.687   5.687   1.251  0.2310  1.4902 -1.5683
 6705SOL    HW326593   5.822   5.742   1.291  0.3266 -0.9529  1.9860
 6705SOL    MW426594   5.773   5.678   1.257 -0.3518  0.0624  0.1363
 6706SOL     OW26595   5.566   3.673   2.817  0.6732 -0.0296 -0.1620
 6706SOL    HW226596   5.656   3.690   2.789  0.5595 -0.9913 -1.1626
 6706SOL    HW326597   5.518   3.751   2.790  0.6466 -0.7331 -2.3984
 6706SOL    MW426598   5.571   3.686   2.810  0.6407  0.4864 -0.1876
 6707SOL     OW26599   3.513   1.371   3.180 -0.8470 -0.2949 -0.1252
 6707SOL    HW226600   3.528   1.292   3.232 -1.5375  0.8778  1.9802
 6707SOL    HW326601   3.418   1.378   3.174 -0.7834 -0.0309 -1.0067
 6707SOL    MW426602   3.502   1.361   3.186 -0.2954 -0.0241 -0.0499
 6708SOL     OW26603   5.869   6.025   1.848 -0.2679 -0.2386  0.5888
 6708SOL    HW226604   5.859   6.043   1.755 -0.7397 -0.3701  0.6124
 6708SOL    HW326605   5.854   6.109   1.891  0.7976  0.0133  0.5011
 6708SOL    MW426606   5.866   6.038   1.841  0.0980 -0.2634 -0.6871
 6709SOL     OW26607   5.213   4.233   2.930  0.6519  0.5524  0.2812
 6709SOL    HW226608   5.272   4.241   2.855  0.8856  1.3900  0.5497
 6709SOL    HW326609   5.136   4.188   2.894  1.4346 -0.5871 -0.0638
 6709SOL    MW426610   5.211   4.228   2.915 -0.7026  0.2786 -0.1192
 6710SOL     OW26611   4.112   2.395   2.787  0.1503  0.9738 -0.0420
 6710SOL    HW226612   4.028   2.351   2.770  0.7907  0.0947 -1.0395
 6710SOL    HW326613   4.130   2.377   2.880  0.3792 -0.8940 -0.4137
 6710SOL    MW426614   4.103   2.387   2.797 -0.0901 -0.4870  0.3459
 6711SOL     OW26615   1.983   0.435   4.206  0.0357 -0.1433  0.2556
 6711SOL    HW226616   1.888   0.442   4.217 -0.2547 -2.4740 -0.1976
 6711SOL    HW326617   1.995   0.413   4.114  1.2335  2.3947 -0.2708
 6711SOL    MW426618   1.972   0.433   4.195 -0.3291 -0.0771  0.5513
 6712SOL     OW26619   6.333   0.417   3.683  0.0660 -0.0961 -0.0453
 6712SOL    HW226620   6.353   0.377   3.599 -2.2236 -1.8060  0.1479
 6712SOL    HW326621   6.302   0.505   3.661 -0.5011 -0.5193 -0.9819
 6712SOL    MW426622   6.332   0.423   3.669 -0.3018 -0.0337  0.3578
 6713SOL     OW26623   5.430   2.832   5.415  0.5847 -0.5962  0.2241
 6713SOL    HW226624   5.391   2.799   5.496 -2.1631  0.9914 -0.3125
 6713SOL    HW326625   5.425   2.927   5.424  0.1193 -0.3873 -1.8300
 6713SOL    MW426626   5.424   2.840   5.427 -0.0024 -0.1835 -0.5981
 6714SOL     OW26627   3.847   5.924   5.300  0.1305  0.6238 -0.0155
 6714SOL    HW226628   3.850   5.831   5.281 -0.7994 -0.0085  2.5662
 6714SOL    HW326629   3.891   5.933   5.385 -2.2667  2.0565  1.1766
 6714SOL    MW426630   3.854   5.913   5.309  0.2585  0.4475 -0.4096
 6715SOL     OW26631   2.040   4.491   3.626 -0.4060 -0.4676 -0.2972
 6715SOL    HW226632   1.971   4.557   3.638 -0.0757 -0.1285 -0.2558
 6715SOL    HW326633   2.006   4.433   3.558 -0.9078 -0.5355  0.0010
 6715SOL    MW426634   2.026   4.493   3.619  0.7071 -0.2293 -0.0179
 6716SOL     OW26635   3.517   1.226   0.554 -0.1834 -0.0037  0.1200
 6716SOL    HW226636   3.512   1.236   0.458 -0.1388  1.6124  0.2593
 6716SOL    HW326637   3.610   1.234   0.573 -0.3031  0.7217  0.3970
 6716SOL    MW426638   3.529   1.228   0.544 -0.3269 -0.5470 -0.5032
 6717SOL     OW26639   4.591   0.021   4.848 -0.0096  0.1627  0.4326
 6717SOL    HW226640   4.498   0.003   4.860  0.1058 -0.7403  0.0674
 6717SOL    HW326641   4.595   0.115   4.830 -0.8753  0.1651  0.1932
 6717SOL    MW426642   4.579   0.031   4.848 -0.1787 -0.1161 -0.4066
 6718SOL     OW26643   1.782   5.283   1.497  0.0749 -0.6533 -0.2571
 6718SOL    HW226644   1.769   5.378   1.485  0.5620 -0.5986 -0.3715
 6718SOL    HW326645   1.867   5.276   1.539  0.1325 -1.0561 -0.4405
 6718SOL    MW426646   1.791   5.295   1.501  0.2468  0.3155  0.2822
 6719SOL     OW26647   0.891   4.767   0.603  0.2238 -0.0310  0.9969
 6719SOL    HW226648   0.897   4.672   0.609  0.9698  0.0773  2.4378
 6719SOL    HW326649   0.979   4.795   0.576 -0.2643  0.2109 -0.4356
 6719SOL    MW426650   0.904   4.758   0.600  0.5756 -0.0099  0.1692
 6720SOL     OW26651   3.032   4.883   1.677 -0.1128 -0.3548 -0.0024
 6720SOL    HW226652   2.959   4.945   1.679  0.8063  0.8036 -0.7345
 6720SOL    HW326653   3.016   4.830   1.599 -0.7079 -0.8057  0.4187
 6720SOL    MW426654   3.020   4.884   1.667  0.4321  0.0176  0.2862
 6721SOL     OW26655   2.405   5.358   1.422 -0.2106 -0.0000 -0.4500
 6721SOL    HW226656   2.362   5.441   1.445 -0.3360 -0.1763 -0.0285
 6721SOL    HW326657   2.480   5.384   1.369  0.3892  0.4727  0.5904
 6721SOL    MW426658   2.409   5.373   1.418  0.0419 -0.2018  0.3956
 6722SOL     OW26659   3.190   1.539   6.309 -0.3836 -0.1269  0.1294
 6722SOL    HW226660   3.217   1.609   6.368 -3.1650  0.1030  1.3184
 6722SOL    HW326661   3.221   1.459   6.351  2.0545  0.2709 -0.7885
 6722SOL    MW426662   3.197   1.538   6.323 -0.0937  0.3055 -0.3365
 6723SOL     OW26663   3.654   3.117   6.199  0.4481 -0.3797 -0.4585
 6723SOL    HW226664   3.639   3.179   6.270  1.0263  0.6145 -1.1896
 6723SOL    HW326665   3.566   3.088   6.175  0.0628  1.1118 -0.9348
 6723SOL    MW426666   3.640   3.121   6.205 -0.0527  0.0980 -0.1141
 6724SOL     OW26667   5.453   3.759   5.489  0.4674  0.6283 -0.4721
 6724SOL    HW226668   5.458   3.814   5.411 -1.2061  0.5605 -0.6581
 6724SOL    HW326669   5.393   3.688   5.465  0.0761  0.4982  0.7960
 6724SOL    MW426670   5.446   3.757   5.475 -0.4973 -0.0196 -0.8540
 6725SOL     OW26671   4.786   2.227   2.379 -0.1275 -0.4959  0.1251
 6725SOL    HW226672   4.696   2.202   2.395  0.1981 -0.7202  1.8301
 6725SOL    HW326673   4.804   2.294   2.445  0.8574 -0.2264 -0.3925
 6725SOL    MW426674   4.777   2.233   2.390  0.8239 -0.6809 -0.1327
 6726SOL     OW26675   0.343   5.013   1.979  0.0668 -0.0094  0.2085
 6726SOL    HW226676   0.313   4.975   1.896  1.4468 -2.1906  0.6018
 6726SOL    HW326677   0.436   5.030   1.965  0.2981 -0.3223  1.2415
 6726SOL    MW426678   0.352   5.010   1.967 -0.1809  0.6567  0.4348
 6727SOL     OW26679   1.685   4.773   1.139 -0.2149  0.7101  0.2601
 6727SOL    HW226680   1.623   4.788   1.210 -0.5156  0.1079  0.1304
 6727SOL    HW326681   1.771   4.795   1.177 -0.5266  1.7916  0.3603
 6727SOL    MW426682   1.688   4.778   1.153  0.3917 -0.0567 -0.7856
 6728SOL     OW26683   1.834   2.143   2.211  0.4369 -0.0810 -0.1895
 6728SOL    HW226684   1.918   2.147   2.258  1.3279 -0.8542 -1.6183
 6728SOL    HW326685   1.803   2.054   2.225 -0.1244  0.1873  0.2887
 6728SOL    MW426686   1.841   2.132   2.219 -0.2411 -0.4991 -0.5136
 6729SOL     OW26687   2.231   1.873   1.511 -0.7264 -0.4151 -0.4209
 6729SOL    HW226688   2.236   1.861   1.606 -0.6763 -0.1324 -0.3876
 6729SOL    HW326689   2.310   1.832   1.477 -0.0787  0.6231 -0.2270
 6729SOL    MW426690   2.242   1.866   1.519  0.2016 -0.0415 -0.0503
 6730SOL     OW26691   2.472   1.010   4.013 -0.3519 -0.1446  0.1626
 6730SOL    HW226692   2.547   0.966   4.053 -0.2760 -2.2487 -2.0671
 6730SOL    HW326693   2.510   1.057   3.938 -0.6887  2.4859  1.5337
 6730SOL    MW426694   2.487   1.011   4.008  0.4635 -0.1793  0.4618
 6731SOL     OW26695   0.252   1.896   1.812  0.0911  0.0670  0.7075
 6731SOL    HW226696   0.168   1.851   1.800  0.3945 -0.6579  1.2483
 6731SOL    HW326697   0.232   1.988   1.795 -0.1726 -0.4368 -2.3093
 6731SOL    MW426698   0.238   1.902   1.808 -0.1947  0.4265  0.5991
 6732SOL     OW26699   2.001   3.765   4.715 -0.1039 -0.3635 -0.5022
 6732SOL    HW226700   1.961   3.794   4.797  0.6756  0.2485 -0.3170
 6732SOL    HW326701   2.095   3.778   4.729  0.0424 -0.3196 -1.4677
 6732SOL    MW426702   2.008   3.771   4.727  0.0044 -0.4817  0.3319
 6733SOL     OW26703   0.184   0.905   6.005  0.0141  0.1427 -0.8033
 6733SOL    HW226704   0.122   0.903   6.077  0.0805 -1.6378 -0.7636
 6733SOL    HW326705   0.130   0.905   5.926 -0.0413 -0.0465 -0.7646
 6733SOL    MW426706   0.169   0.905   6.004  0.2359  0.3336  0.5434
 6734SOL     OW26707   1.972   0.449   3.260 -0.2022  0.2077  0.2311
 6734SOL    HW226708   2.036   0.384   3.290  1.3727  1.4175 -0.3871
 6734SOL    HW326709   1.965   0.433   3.166  0.7193  1.3280 -0.0512
 6734SOL    MW426710   1.980   0.438   3.252 -0.2889  0.0485 -0.4787
 6735SOL     OW26711   4.583   2.520   5.720  1.0256 -0.0341  0.2798
 6735SOL    HW226712   4.507   2.463   5.710  0.0066  1.3142  0.0339
 6735SOL    HW326713   4.627   2.516   5.635  0.2383  0.5237 -0.1671
 6735SOL    MW426714   4.579   2.512   5.707  0.4262  0.2971 -0.4065
 6736SOL     OW26715   2.623   1.685   4.109 -0.3624 -0.1101 -0.0385
 6736SOL    HW226716   2.690   1.631   4.067  0.6532  1.5291 -0.6605
 6736SOL    HW326717   2.579   1.729   4.036 -0.8113  0.2855  0.4607
 6736SOL    MW426718   2.626   1.684   4.094 -0.0423  0.2370  0.1083
 6737SOL     OW26719   3.161   6.216   3.317  0.1870  0.4628 -0.4333
 6737SOL    HW226720   3.149   6.289   3.379 -1.6439 -0.9540  1.0210
 6737SOL    HW326721   3.095   6.233   3.249 -1.6452 -0.7498  0.9327
 6737SOL    MW426722   3.150   6.228   3.317 -0.2419  0.8333  0.1635
 6738SOL     OW26723   1.969   5.706   1.612 -0.1528 -0.3107 -0.3105
 6738SOL    HW226724   2.025   5.640   1.654  1.1336  1.7088  1.3302
 6738SOL    HW326725   1.899   5.655   1.572  0.4622 -2.6415  1.3395
 6738SOL    MW426726   1.967   5.691   1.612  0.0840 -0.4712  0.0820
 6739SOL     OW26727   2.473   2.243   4.674  0.0780  0.3915  0.0688
 6739SOL    HW226728   2.394   2.288   4.645  0.3579 -0.5250 -2.2916
 6739SOL    HW326729   2.449   2.150   4.674  1.0160  0.1427 -0.2069
 6739SOL    MW426730   2.460   2.236   4.670 -0.2867  0.1205  0.0201
 6740SOL     OW26731   3.639   4.172   3.603  0.3561  0.4417  0.4327
 6740SOL    HW226732   3.623   4.108   3.533 -0.3840  1.4986 -0.4007
 6740SOL    HW326733   3.580   4.147   3.673 -0.0938  0.3410  0.0206
 6740SOL    MW426734   3.629   4.161   3.603  0.0266  0.6299  0.3676
 6741SOL     OW26735   2.186   1.955   0.235  0.4444  0.6003 -0.4643
 6741SOL    HW226736   2.278   1.929   0.247  0.8397  1.5789 -1.2005
 6741SOL    HW326737   2.136   1.889   0.282  1.6059  1.2256  1.7891
 6741SOL    MW426738   2.192   1.943   0.243 -0.1458 -0.3591 -0.2156
 6742SOL     OW26739   1.722   3.496   0.384  0.3775  0.0837  0.0736
 6742SOL    HW226740   1.722   3.572   0.442  2.0114 -1.2963  2.0029
 6742SOL    HW326741   1.633   3.495   0.347 -0.1192  2.1214  1.0333
 6742SOL    MW426742   1.710   3.506   0.387  0.2889 -0.0475 -0.6437
 6743SOL     OW26743   1.239   5.355   4.732  0.3848 -0.2046  0.0508
 6743SOL    HW226744   1.245   5.430   4.672 -1.4038 -0.0531 -0.0084
 6743SOL    HW326745   1.330   5.329   4.748  0.9546  0.4255 -1.8718
 6743SOL    MW426746   1.252   5.362   4.726 -0.3715  0.2503 -0.3605
 6744SOL     OW26747   1.692   3.343   1.578 -0.3513 -0.4192  0.4730
 6744SOL    HW226748   1.707   3.437   1.566 -0.6517 -0.2220  1.5722
 6744SOL    HW326749   1.743   3.302   1.508  1.2497  0.4728  1.0609
 6744SOL    MW426750   1.701   3.350   1.567 -0.8308  0.3506 -0.3194
 6745SOL     OW26751   2.036   4.989   5.181  0.7099 -0.1291 -0.1243
 6745SOL    HW226752   2.018   5.020   5.092 -0.5242 -0.0240  0.1322
 6745SOL    HW326753   2.127   4.961   5.179  0.7729  0.0899 -1.3591
 6745SOL    MW426754   2.045   4.989   5.169 -0.1599  0.5555 -0.2804
 6746SOL     OW26755   4.291   5.095   3.429  0.3290 -0.0052 -0.6905
 6746SOL    HW226756   4.381   5.120   3.451  0.5113  0.0865 -1.5289
 6746SOL    HW326757   4.241   5.113   3.509  0.6521  2.0492 -0.9073
 6746SOL    MW426758   4.296   5.101   3.443 -0.3486 -0.4528  0.1828
 6747SOL     OW26759   5.230   1.643   2.583 -0.1866  0.1229  0.3468
 6747SOL    HW226760   5.257   1.552   2.590 -0.5126 -0.2067 -1.9159
 6747SOL    HW326761   5.141   1.640   2.547  0.6330  1.2791 -2.0314
 6747SOL    MW426762   5.222   1.631   2.579 -0.0898  0.3868 -0.0577
 6748SOL     OW26763   0.969   4.463   2.677  0.2436 -0.2122 -0.0352
 6748SOL    HW226764   0.921   4.454   2.760 -0.9621  1.0078 -0.5647
 6748SOL    HW326765   0.912   4.421   2.612 -0.5029  1.8524 -0.7851
 6748SOL    MW426766   0.955   4.456   2.680  0.4310  0.0721  0.3978
 6749SOL     OW26767   5.553   4.694   4.908  0.1089 -0.4073  0.4179
 6749SOL    HW226768   5.497   4.617   4.896  1.2568 -1.0278 -1.5549
 6749SOL    HW326769   5.493   4.763   4.933 -1.1243 -1.6878  1.1464
 6749SOL    MW426770   5.538   4.693   4.910  0.2316 -0.0616 -0.3394
 6750SOL     OW26771   5.793   5.206   6.070 -0.0855  0.7326 -0.4064
 6750SOL    HW226772   5.798   5.203   6.165  1.2572  1.9314 -0.3965
 6750SOL    HW326773   5.790   5.115   6.043 -0.0708  0.3701  0.7657
 6750SOL    MW426774   5.793   5.194   6.079  0.1507  0.5004  0.2225
 6751SOL     OW26775   4.978   5.377   3.441  0.2857 -0.2288  0.6045
 6751SOL    HW226776   5.041   5.449   3.434  1.9289 -1.6081  0.5472
 6751SOL    HW326777   5.031   5.302   3.467 -1.5972 -1.1372  1.9869
 6751SOL    MW426778   4.993   5.377   3.443 -0.2696 -0.6682  0.5025
 6752SOL     OW26779   0.354   1.524   4.711  0.3974 -0.2605 -0.2931
 6752SOL    HW226780   0.328   1.438   4.743  1.9686 -1.9776 -3.2592
 6752SOL    HW326781   0.272   1.563   4.681  0.0508 -2.3849 -2.4035
 6752SOL    MW426782   0.339   1.518   4.711 -0.1860  0.1107 -0.2257
 6753SOL     OW26783   4.551   3.691   1.135  0.0807  0.1365  0.1438
 6753SOL    HW226784   4.549   3.673   1.041  0.3006  1.6757 -0.1707
 6753SOL    HW326785   4.597   3.774   1.143 -1.8678  1.1545  1.4325
 6753SOL    MW426786   4.557   3.700   1.124 -0.6598  0.8346  0.2300
 6754SOL     OW26787   0.396   1.339   3.450  0.2024 -0.1408  0.2656
 6754SOL    HW226788   0.483   1.319   3.483  0.5151  1.0872  0.2570
 6754SOL    HW326789   0.385   1.433   3.467 -1.0523 -0.2387  0.1118
 6754SOL    MW426790   0.406   1.349   3.456 -0.1118  0.4299 -0.0976
 6755SOL     OW26791   2.122   2.146   5.335 -0.5774 -0.1450  0.4310
 6755SOL    HW226792   2.185   2.087   5.377 -0.0073 -0.5991 -0.9907
 6755SOL    HW326793   2.036   2.113   5.362 -0.2217 -0.2503  1.4370
 6755SOL    MW426794   2.119   2.133   5.344 -0.2474 -0.1537 -0.0307
 6756SOL     OW26795   5.704   0.984   1.609  0.0505 -0.1474 -0.1474
 6756SOL    HW226796   5.785   0.981   1.659 -0.2352  1.7777  0.5006
 6756SOL    HW326797   5.719   0.925   1.535  1.4285 -1.0403  0.8144
 6756SOL    MW426798   5.716   0.976   1.606 -0.2636 -0.0227 -0.0563
 6757SOL     OW26799   4.997   3.500   4.943 -0.2569 -0.4108 -0.1944
 6757SOL    HW226800   5.053   3.463   5.011  0.2558  1.0140  0.2025
 6757SOL    HW326801   5.041   3.581   4.917 -1.6358  0.2645 -0.5570
 6757SOL    MW426802   5.010   3.506   4.949  0.3309 -0.7204 -0.1924
 6758SOL     OW26803   3.417   0.434   0.611 -0.2665 -0.8438  0.1907
 6758SOL    HW226804   3.508   0.461   0.603 -1.1414  3.0884  1.2902
 6758SOL    HW326805   3.376   0.466   0.530 -0.9976 -0.9351  0.5168
 6758SOL    MW426806   3.424   0.442   0.599 -0.1383  0.1249  0.0459
 6759SOL     OW26807   6.373   2.824   5.136 -0.1968  0.0565 -0.2686
 6759SOL    HW226808   6.465   2.836   5.115 -0.4333  1.0806 -0.7705
 6759SOL    HW326809   6.337   2.774   5.062 -0.1177 -0.0492 -0.2356
 6759SOL    MW426810   6.380   2.819   5.123  0.0567 -0.3479 -0.4012
 6760SOL     OW26811   1.686   5.648   4.504  0.1837 -0.3078 -0.1684
 6760SOL    HW226812   1.762   5.669   4.450  0.2444 -0.8658 -0.3053
 6760SOL    HW326813   1.612   5.688   4.458  0.4880  0.9719  0.4047
 6760SOL    MW426814   1.686   5.656   4.491 -0.1534  0.5808 -0.0982
 6761SOL     OW26815   5.853   5.435   2.883 -0.6184  0.7244  0.3821
 6761SOL    HW226816   5.823   5.359   2.832 -1.4260  1.3837 -0.1680
 6761SOL    HW326817   5.872   5.501   2.817 -3.8854  2.3921  0.9061
 6761SOL    MW426818   5.851   5.433   2.867 -0.2843  0.1183 -0.4083
 6762SOL     OW26819   0.508   0.512   4.613 -0.0235  0.5913  0.1297
 6762SOL    HW226820   0.564   0.586   4.633 -0.5571  1.1196 -0.2898
 6762SOL    HW326821   0.449   0.544   4.545 -1.3960  0.3319  1.1484
 6762SOL    MW426822   0.508   0.526   4.607 -0.2635  0.3468  0.2474
 6763SOL     OW26823   5.249   4.138   3.794 -0.5638  0.8110 -0.1189
 6763SOL    HW226824   5.288   4.050   3.795 -1.9414  0.1822 -0.2145
 6763SOL    HW326825   5.295   4.185   3.863  0.3009  0.0723 -0.1678
 6763SOL    MW426826   5.260   4.132   3.803  0.1030 -0.4749  0.6186
 6764SOL     OW26827   1.546   1.034   1.119 -0.0335 -0.0249 -0.2617
 6764SOL    HW226828   1.566   1.029   1.025  0.4624  1.4288 -0.2618
 6764SOL    HW326829   1.509   0.948   1.140  1.1479 -0.8796 -1.4772
 6764SOL    MW426830   1.544   1.022   1.109  0.2248 -0.0110  0.3868
 6765SOL     OW26831   6.096   3.380   2.524 -0.1482  0.4629 -0.2473
 6765SOL    HW226832   6.051   3.332   2.593  0.6728  1.2657  0.8813
 6765SOL    HW326833   6.189   3.372   2.547  0.0467  1.9055 -0.4750
 6765SOL    MW426834   6.102   3.373   2.536 -0.0169  0.1578  1.0959
 6766SOL     OW26835   5.241   4.086   5.492  0.1002 -0.1595  0.0787
 6766SOL    HW226836   5.274   4.051   5.575 -0.2283  1.3419  0.8662
 6766SOL    HW326837   5.319   4.116   5.446  0.5625 -2.9575 -1.1929
 6766SOL    MW426838   5.255   4.085   5.497 -0.6981 -0.3482 -0.1915
 6767SOL     OW26839   2.973   4.775   0.431  0.6685  0.1564  0.3960
 6767SOL    HW226840   2.890   4.739   0.462 -0.5899  1.3535 -1.3893
 6767SOL    HW326841   3.012   4.705   0.379 -0.0377  0.1426 -0.1238
 6767SOL    MW426842   2.967   4.761   0.429  0.3124 -0.0190 -0.5574
 6768SOL     OW26843   1.699   0.704   6.384  0.1742  0.2836 -0.0536
 6768SOL    HW226844   1.620   0.712   6.438  0.7861 -2.0014  1.2994
 6768SOL    HW326845   1.685   0.766   6.312 -1.6837  1.7903  1.5032
 6768SOL    MW426846   1.687   0.713   6.381 -0.0457  0.4318 -0.3524
 6769SOL     OW26847   5.116   0.802   3.932  0.2329  0.2138 -0.0119
 6769SOL    HW226848   5.097   0.843   4.016  0.7335 -0.7539  0.5951
 6769SOL    HW326849   5.206   0.829   3.912  0.5846 -0.5743  0.4157
 6769SOL    MW426850   5.126   0.811   3.940  0.0923 -0.6548 -0.3614
 6770SOL     OW26851   2.994   2.814   1.009 -0.2430 -0.0821 -0.0782
 6770SOL    HW226852   2.962   2.903   0.995 -0.5014 -0.2778 -0.7601
 6770SOL    HW326853   3.004   2.807   1.104  0.5867  0.9557 -0.0645
 6770SOL    MW426854   2.991   2.825   1.020  0.3466 -0.4226 -0.5238
 6771SOL     OW26855   4.075   2.376   0.147 -0.4120  0.2967  0.5815
 6771SOL    HW226856   4.069   2.303   0.086 -1.6385  0.3647  0.5906
 6771SOL    HW326857   3.996   2.428   0.129 -0.0198  1.1250  1.1976
 6771SOL    MW426858   4.064   2.373   0.136  0.3342 -0.4288  0.3299
 6772SOL     OW26859   4.534   3.291   1.455 -0.1705 -0.2587 -0.8210
 6772SOL    HW226860   4.524   3.381   1.425  0.4694 -0.0971 -0.5411
 6772SOL    HW326861   4.484   3.240   1.391  0.0666  0.2165 -1.3943
 6772SOL    MW426862   4.526   3.296   1.442 -0.3353  0.8094 -0.3234
 6773SOL     OW26863   3.103   4.072   4.819 -0.3382  0.2968 -0.3875
 6773SOL    HW226864   3.147   4.153   4.796  0.6596  0.1112  0.7763
 6773SOL    HW326865   3.140   4.047   4.903 -1.9858 -0.3855  0.1891
 6773SOL    MW426866   3.113   4.079   4.827 -0.1709  0.7742 -0.0116
 6774SOL     OW26867   5.138   0.677   1.297 -0.3551  0.0601  0.2690
 6774SOL    HW226868   5.127   0.647   1.207 -0.5160  0.6560  0.0841
 6774SOL    HW326869   5.135   0.597   1.350  1.0097 -0.4235 -0.3526
 6774SOL    MW426870   5.136   0.662   1.292  0.5065  0.0290  0.0982
 6775SOL     OW26871   4.446   5.004   6.382  0.9527  0.3190 -0.8122
 6775SOL    HW226872   4.362   4.965   6.408  0.6960  1.7471  0.6560
 6775SOL    HW326873   4.510   4.960   6.438  0.9470  0.4938 -0.6688
 6775SOL    MW426874   4.443   4.993   6.393  0.5179  0.1589  0.3341
 6776SOL     OW26875   2.146   2.809   1.787  0.3849 -0.8901 -0.1605
 6776SOL    HW226876   2.101   2.831   1.706 -1.3031  1.9798  1.3873
 6776SOL    HW326877   2.235   2.844   1.776  0.5272 -1.5699 -1.1882
 6776SOL    MW426878   2.152   2.817   1.775 -0.3464  0.3356 -0.0316
 6777SOL     OW26879   2.458   2.470   5.054  0.2464 -0.1292  0.4474
 6777SOL    HW226880   2.388   2.520   5.013  0.8685 -0.5394 -1.1948
 6777SOL    HW326881   2.533   2.530   5.055 -0.0148  0.2166  1.9510
 6777SOL    MW426882   2.459   2.485   5.049 -0.0084 -0.0316 -0.2334
 6778SOL     OW26883   1.629   4.051   3.502 -0.2524 -0.0989  0.3789
 6778SOL    HW226884   1.539   4.035   3.531 -0.8276  1.0817 -0.6918
 6778SOL    HW326885   1.647   4.141   3.526  0.9239 -0.5443  1.2337
 6778SOL    MW426886   1.619   4.060   3.509 -0.0231  0.3293 -0.4305
 6779SOL     OW26887   0.291   0.835   5.281  0.0584 -0.5934  0.1995
 6779SOL    HW226888   0.288   0.909   5.341  1.2692 -0.6031  0.3027
 6779SOL    HW326889   0.246   0.866   5.203 -1.0555 -0.3976  0.9105
 6779SOL    MW426890   0.285   0.849   5.278 -0.3322 -0.0826  1.4110
 6780SOL     OW26891   4.579   1.603   5.342 -0.4871 -0.2269 -0.1370
 6780SOL    HW226892   4.511   1.567   5.284 -1.8940 -0.6344  1.6582
 6780SOL    HW326893   4.657   1.551   5.322 -0.8099 -0.1038 -1.8922
 6780SOL    MW426894   4.580   1.591   5.331  0.4742 -0.0663 -0.6436
 6781SOL     OW26895   5.154   0.130   0.321  0.1252  0.0772 -0.0751
 6781SOL    HW226896   5.099   0.087   0.387  1.3092 -2.2019 -0.4740
 6781SOL    HW326897   5.180   0.060   0.261  1.7375  1.4705 -1.1249
 6781SOL    MW426898   5.150   0.115   0.322  0.1722 -0.2464 -0.3992
 6782SOL     OW26899   4.003   5.414   3.198 -0.3859 -0.4562  0.0842
 6782SOL    HW226900   4.015   5.502   3.233 -1.1054 -0.4395  0.3069
 6782SOL    HW326901   3.947   5.370   3.262  0.6047 -1.3359  0.3783
 6782SOL    MW426902   3.997   5.420   3.211 -0.2004  0.0065 -0.3398
 6783SOL     OW26903   3.278   1.673   1.224 -0.0287 -0.5235  0.1308
 6783SOL    HW226904   3.209   1.634   1.277 -1.0319  1.4159  0.3409
 6783SOL    HW326905   3.238   1.682   1.137 -0.2636  1.0726  0.3773
 6783SOL    MW426906   3.264   1.669   1.219 -0.0848  0.0854  0.1552
 6784SOL     OW26907   5.808   1.416   2.732  0.1138 -0.1200  0.4086
 6784SOL    HW226908   5.831   1.475   2.660  1.8899 -0.0649  0.9757
 6784SOL    HW326909   5.714   1.428   2.742 -0.1622  0.0386 -1.7397
 6784SOL    MW426910   5.799   1.426   2.724 -0.0032 -1.0281  0.4634
 6785SOL     OW26911   3.779   6.159   3.028 -0.3036  0.0387  0.3630
 6785SOL    HW226912   3.751   6.249   3.013 -0.0947  0.2742  1.2815
 6785SOL    HW326913   3.792   6.154   3.123  1.1087 -0.5301  0.1699
 6785SOL    MW426914   3.777   6.171   3.039  0.0233 -0.5161  0.0455
 6786SOL     OW26915   2.876   4.350   2.818  0.0071 -0.4306  0.0166
 6786SOL    HW226916   2.830   4.270   2.793 -0.7789 -0.1404  0.4806
 6786SOL    HW326917   2.954   4.320   2.864 -0.1717 -0.9315 -0.0045
 6786SOL    MW426918   2.880   4.336   2.821 -0.0264 -0.0652 -0.9870
 6787SOL     OW26919   4.536   2.347   6.191  0.4629  0.5139  0.1655
 6787SOL    HW226920   4.565   2.361   6.101  0.5262 -0.2925  0.0527
 6787SOL    HW326921   4.459   2.291   6.183 -0.0683  1.1782  0.5661
 6787SOL    MW426922   4.530   2.342   6.178 -0.3682 -0.3201 -0.3874
 6788SOL     OW26923   2.245   1.213   3.686 -0.7589  0.0005  0.6715
 6788SOL    HW226924   2.156   1.189   3.660 -0.3205  1.1211 -2.3444
 6788SOL    HW326925   2.255   1.302   3.654  1.8220 -0.5371 -0.2346
 6788SOL    MW426926   2.235   1.221   3.678  0.3014  0.4053  0.0683
 6789SOL     OW26927   5.460   3.138   1.045  0.2007 -0.0465  0.4646
 6789SOL    HW226928   5.465   3.049   1.009  0.5706 -0.0908  0.6158
 6789SOL    HW326929   5.389   3.180   0.996 -0.8144 -0.8047  1.2494
 6789SOL    MW426930   5.451   3.132   1.033  0.3271 -0.2677  0.6384
 6790SOL     OW26931   3.273   1.636   3.447  0.0443 -0.3646 -0.7807
 6790SOL    HW226932   3.207   1.578   3.409 -1.5428 -0.8740  2.4225
 6790SOL    HW326933   3.348   1.579   3.464 -1.0179 -1.2619  1.1360
 6790SOL    MW426934   3.275   1.621   3.444  0.0709  0.5540 -0.2870
 6791SOL     OW26935   5.092   0.800   4.830  0.6310 -0.3680 -0.1097
 6791SOL    HW226936   5.071   0.714   4.794 -1.4860  0.1368 -0.2288
 6791SOL    HW326937   5.135   0.846   4.758  1.3496 -1.1545 -0.1971
 6791SOL    MW426938   5.095   0.795   4.816 -0.5152 -0.1239  0.0543
 6792SOL     OW26939   0.406   6.267   2.661 -0.2588  0.1700 -0.1890
 6792SOL    HW226940   0.477   6.307   2.611 -0.5817  1.4512  0.3294
 6792SOL    HW326941   0.326   6.297   2.618 -0.5106 -0.9014 -0.4973
 6792SOL    MW426942   0.405   6.276   2.649  0.3894 -0.4569  0.0463
 6793SOL     OW26943   0.620   5.656   2.360 -0.1337  0.5514 -0.4262
 6793SOL    HW226944   0.546   5.684   2.306 -0.9755 -0.8049 -0.0077
 6793SOL    HW326945   0.697   5.674   2.305 -0.6951  2.4084 -0.6796
 6793SOL    MW426946   0.620   5.662   2.345 -0.4491  0.6461  0.1355
 6794SOL     OW26947   3.220   5.035   2.863 -0.1185 -0.6413 -0.0801
 6794SOL    HW226948   3.133   5.052   2.899  0.7254  1.0010  1.3172
 6794SOL    HW326949   3.264   4.985   2.932  1.1840  1.6522  0.8443
 6794SOL    MW426950   3.214   5.031   2.877 -0.0817 -0.3859  0.3837
 6795SOL     OW26951   0.394   0.588   0.990  0.0813  0.1181 -0.0566
 6795SOL    HW226952   0.371   0.561   0.901 -0.7519 -0.5968  0.3616
 6795SOL    HW326953   0.353   0.674   1.001 -0.4032 -0.1031 -0.1250
 6795SOL    MW426954   0.386   0.596   0.979 -0.1850 -0.4508  0.2846
 6796SOL     OW26955   2.521   4.198   0.740 -0.2951  0.0121  0.3397
 6796SOL    HW226956   2.460   4.172   0.810 -1.0104 -1.7843 -0.8843
 6796SOL    HW326957   2.466   4.247   0.678 -0.0531  0.1076  0.2011
 6796SOL    MW426958   2.506   4.201   0.741  0.4464 -0.2617 -0.4118
 6797SOL     OW26959   4.042   0.150   0.070  0.0247  0.7706 -0.0508
 6797SOL    HW226960   4.114   0.115   0.018  0.3860  0.4207  0.6661
 6797SOL    HW326961   3.969   0.157   0.008 -0.1473 -1.5395 -0.2009
 6797SOL    MW426962   4.042   0.146   0.055 -0.8609  0.5109 -0.0661
 6798SOL     OW26963   3.356   2.179   0.137  0.2325  0.3199  0.4310
 6798SOL    HW226964   3.390   2.222   0.216  0.0654  1.5443 -0.1403
 6798SOL    HW326965   3.370   2.086   0.153  1.2596  0.6172  1.4102
 6798SOL    MW426966   3.362   2.172   0.150  0.0635 -0.2564  0.3463
 6799SOL     OW26967   2.163   1.751   2.054  0.4171 -0.0591 -0.0787
 6799SOL    HW226968   2.083   1.789   2.019  0.6032 -0.7226 -1.2886
 6799SOL    HW326969   2.156   1.657   2.034  1.1870 -0.2303  0.3913
 6799SOL    MW426970   2.152   1.743   2.047  0.0001  0.4005  0.4435
 6800SOL     OW26971   2.776   1.566   3.315 -0.2697  0.5641 -0.4349
 6800SOL    HW226972   2.773   1.589   3.222 -1.7109  0.3151 -0.4821
 6800SOL    HW326973   2.687   1.584   3.346  0.0723  0.2068  0.7922
 6800SOL    MW426974   2.764   1.572   3.307  0.3981  0.0710  0.1317
 6801SOL     OW26975   1.345   4.907   3.688  0.2586 -0.3574 -0.3894
 6801SOL    HW226976   1.390   4.992   3.693 -0.1252 -0.1289 -0.7322
 6801SOL    HW326977   1.260   4.923   3.728  0.6494 -0.9176  0.6950
 6801SOL    MW426978   1.340   4.921   3.694  0.0875 -0.3426 -0.4662
 6802SOL     OW26979   5.870   4.987   5.655 -0.7697 -0.0505 -0.1510
 6802SOL    HW226980   5.845   5.051   5.588  1.4562  2.0201  0.8725
 6802SOL    HW326981   5.952   4.949   5.623 -0.6064 -0.3344  0.5795
 6802SOL    MW426982   5.878   4.990   5.642  0.1208  0.4863 -0.3096
 6803SOL     OW26983   3.520   4.804   3.795  0.2040 -0.1779  0.0479
 6803SOL    HW226984   3.475   4.728   3.756  0.8195 -0.9135  0.7442
 6803SOL    HW326985   3.571   4.841   3.723 -0.1302 -0.3986 -0.3059
 6803SOL    MW426986   3.520   4.799   3.780 -0.0539  0.1268  0.1424
 6804SOL     OW26987   4.816   3.101   0.437  0.1109 -0.3957 -0.2804
 6804SOL    HW226988   4.834   3.014   0.473 -2.2939 -0.7928  0.1081
 6804SOL    HW326989   4.854   3.162   0.500 -0.6768 -1.1485  0.9579
 6804SOL    MW426990   4.824   3.098   0.450 -0.0561  0.5892  0.3162
 6805SOL     OW26991   2.662   3.693   3.550  0.2683  0.3360  0.5270
 6805SOL    HW226992   2.670   3.619   3.490  1.2249  0.7181  0.1633
 6805SOL    HW326993   2.741   3.745   3.534  0.5324  0.4719  2.0783
 6805SOL    MW426994   2.674   3.690   3.540  0.0751  0.1644  0.2640
 6806SOL     OW26995   4.602   5.761   3.708  0.3055  1.0873 -0.1217
 6806SOL    HW226996   4.679   5.779   3.762 -0.6117  0.5454  1.4127
 6806SOL    HW326997   4.576   5.672   3.731 -1.6354  1.7594  0.4994
 6806SOL    MW426998   4.609   5.752   3.718 -0.0618 -0.2331 -0.1582
 6807SOL     OW26999   1.977   5.358   4.373  0.4675 -0.6241 -0.5415
 6807SOL    HW227000   1.930   5.385   4.452  0.0986  1.8179 -1.5149
 6807SOL    HW327001   2.069   5.365   4.397  0.3799  1.3608 -0.6556
 6807SOL    MW427002   1.983   5.362   4.386  0.5372 -0.0646  0.5746
 6808SOL     OW27003   2.473   3.858   1.882 -0.0772  0.8997  0.3004
 6808SOL    HW227004   2.437   3.788   1.827  0.8935  0.4555  0.2107
 6808SOL    HW327005   2.504   3.924   1.820  2.3009 -0.2270  0.2071
 6808SOL    MW427006   2.472   3.858   1.867 -0.3908 -0.4571 -0.8553
 6809SOL     OW27007   0.057   0.268   4.350  0.5109  0.0428  0.3982
 6809SOL    HW227008   0.082   0.230   4.434  0.4595 -2.2322 -0.5310
 6809SOL    HW327009   0.059   0.194   4.289  2.0794  1.8914 -1.9597
 6809SOL    MW427010   0.060   0.253   4.353 -0.1359 -0.4201  0.1068
 6810SOL     OW27011   1.040   3.567   3.005 -0.1150  0.2239 -0.2623
 6810SOL    HW227012   1.112   3.612   3.050  0.8264 -0.0150 -1.4868
 6810SOL    HW327013   1.018   3.625   2.932 -0.6999 -0.0478 -0.3020
 6810SOL    MW427014   1.047   3.581   3.001 -0.2563  0.5826 -0.1616
 6811SOL     OW27015   0.232   1.802   0.544 -0.5328  0.3046 -0.0423
 6811SOL    HW227016   0.170   1.729   0.538  0.0588 -0.1166 -1.2724
 6811SOL    HW327017   0.243   1.833   0.455 -0.6653  1.8361  0.4520
 6811SOL    MW427018   0.225   1.796   0.532 -0.4312  0.0881 -0.0049
 6812SOL     OW27019   1.808   3.457   3.390  0.2349 -0.2428 -0.1466
 6812SOL    HW227020   1.768   3.406   3.460  0.6436  0.1523  0.3741
 6812SOL    HW327021   1.837   3.392   3.326  1.1396 -0.6967  0.7146
 6812SOL    MW427022   1.807   3.442   3.390  0.1149 -0.6609 -0.5772
 6813SOL     OW27023   1.525   2.407   0.534 -0.4934  0.4609  0.0717
 6813SOL    HW227024   1.486   2.438   0.616 -0.8383  1.4688 -0.4605
 6813SOL    HW327025   1.453   2.403   0.472 -0.1295  0.2775 -0.3450
 6813SOL    MW427026   1.511   2.411   0.537  0.1890 -0.3175  0.1020
 6814SOL     OW27027   0.960   1.918   0.850  0.1601  0.0577 -0.4236
 6814SOL    HW227028   1.043   1.906   0.804  0.3328 -0.3371 -0.0232
 6814SOL    HW327029   0.937   1.830   0.881 -0.1536  0.2477 -0.1047
 6814SOL    MW427030   0.968   1.905   0.848 -0.2154 -0.2876  0.3031
 6815SOL     OW27031   1.347   0.081   5.551  0.1609 -0.0855  0.3261
 6815SOL    HW227032   1.256   0.106   5.568  0.0279  0.0401 -0.5058
 6815SOL    HW327033   1.387   0.075   5.638 -0.0755  1.9935  0.6445
 6815SOL    MW427034   1.340   0.084   5.565  0.4852 -0.7405  0.1969
 6816SOL     OW27035   2.336   3.183   5.010 -0.4838  0.2814  0.9661
 6816SOL    HW227036   2.272   3.217   4.947 -1.9742  0.3710  2.4418
 6816SOL    HW327037   2.388   3.259   5.034 -0.9281  0.5788  0.9976
 6816SOL    MW427038   2.334   3.198   5.005 -0.3064 -0.2509 -0.5315
 6817SOL     OW27039   1.457   5.494   6.133  0.1276  0.0679  0.1134
 6817SOL    HW227040   1.488   5.566   6.187  0.9125 -0.5535  0.5045
 6817SOL    HW327041   1.486   5.517   6.044 -2.5728  1.9061 -0.4146
 6817SOL    MW427042   1.465   5.506   6.128  0.2128  0.1086 -0.4748
 6818SOL     OW27043   5.288   1.690   0.134 -0.7798 -0.0653  0.5200
 6818SOL    HW227044   5.239   1.625   0.185 -1.0450  0.6531  1.2055
 6818SOL    HW327045   5.368   1.645   0.109 -0.9134 -0.6319  1.0726
 6818SOL    MW427046   5.292   1.675   0.138 -0.3071  0.2705  0.0504
 6819SOL     OW27047   5.526   2.015   1.091  0.0598  0.2456  0.1033
 6819SOL    HW227048   5.436   2.011   1.059 -0.4600 -0.0448  1.5270
 6819SOL    HW327049   5.568   1.938   1.053 -0.7661 -0.5462  0.7387
 6819SOL    MW427050   5.519   2.004   1.082 -0.3658  0.4364  0.2918
 6820SOL     OW27051   3.837   1.578   1.323  0.5901 -0.0633  0.0563
 6820SOL    HW227052   3.931   1.595   1.316  0.7692 -0.0855  1.9206
 6820SOL    HW327053   3.797   1.642   1.265  1.7462 -0.0287 -0.7418
 6820SOL    MW427054   3.844   1.589   1.314 -0.0179  0.2136  0.3208
 6821SOL     OW27055   1.999   3.659   2.832 -0.2524 -0.4988 -0.3921
 6821SOL    HW227056   2.000   3.576   2.879 -1.4128 -0.5996 -0.5366
 6821SOL    HW327057   1.916   3.699   2.855  0.9715  1.4154  1.0095
 6821SOL    MW427058   1.988   3.653   2.841 -0.1120  0.2613  0.0604
 6822SOL     OW27059   2.628   3.966   2.957  0.1802  0.2211  0.6855
 6822SOL    HW227060   2.602   4.043   3.007 -1.1947 -0.2464  0.7495
 6822SOL    HW327061   2.640   3.897   3.023 -0.1725 -0.0101  0.5175
 6822SOL    MW427062   2.626   3.967   2.972  0.0396  0.0168 -0.5578
 6823SOL     OW27063   0.724   6.277   1.758 -0.8321 -0.1229  0.9655
 6823SOL    HW227064   0.780   6.225   1.700  0.3421 -0.9310  2.7462
 6823SOL    HW327065   0.763   6.364   1.757  1.5974 -1.0552  3.4487
 6823SOL    MW427066   0.736   6.282   1.750  0.1962 -0.2008 -0.1121
 6824SOL     OW27067   1.533   4.272   4.594 -0.3724  0.1261  0.1241
 6824SOL    HW227068   1.488   4.191   4.620  0.6682 -0.3882  0.3792
 6824SOL    HW327069   1.623   4.261   4.626  0.0303  0.9824 -0.6614
 6824SOL    MW427070   1.539   4.260   4.601 -0.3182 -0.2755  0.5792
 6825SOL     OW27071   4.356   0.871   4.907  0.0097 -0.3206  0.5972
 6825SOL    HW227072   4.428   0.922   4.871 -0.3903  0.0205  0.2709
 6825SOL    HW327073   4.392   0.832   4.987  0.7408 -0.6440  0.1263
 6825SOL    MW427074   4.370   0.872   4.912  0.1968  0.1270  0.2290
 6826SOL     OW27075   0.732   2.664   2.178 -0.5074  0.0841  0.2626
 6826SOL    HW227076   0.810   2.715   2.158 -0.0319  0.0484  1.8953
 6826SOL    HW327077   0.665   2.730   2.199 -1.2301  0.1564 -1.9378
 6826SOL    MW427078   0.733   2.680   2.178 -0.1947 -0.1438 -0.2311
 6827SOL     OW27079   4.963   4.912   0.416 -0.2577  0.3109  0.1638
 6827SOL    HW227080   4.914   4.986   0.452 -0.0623  0.6974 -0.3529
 6827SOL    HW327081   4.946   4.916   0.321  0.3924  0.1637  0.0396
 6827SOL    MW427082   4.954   4.922   0.408 -0.1055 -0.3349 -0.3131
 6828SOL     OW27083   0.609   4.847   5.541 -0.4048  0.4018 -0.4328
 6828SOL    HW227084   0.634   4.868   5.451  1.4710 -1.3140 -0.3936
 6828SOL    HW327085   0.589   4.753   5.539 -0.4859  0.3777  0.8951
 6828SOL    MW427086   0.610   4.837   5.529 -0.0574  0.2926  0.6692
 6829SOL     OW27087   4.171   3.024   5.830  0.2152  0.4957 -0.5449
 6829SOL    HW227088   4.177   3.020   5.926  1.0447 -0.3090 -0.6136
 6829SOL    HW327089   4.258   3.052   5.802  0.5738 -1.1051 -1.1353
 6829SOL    MW427090   4.183   3.027   5.839  0.1097  0.8630  0.0667
 6830SOL     OW27091   0.560   3.783   5.287  0.2469 -0.1511  0.2526
 6830SOL    HW227092   0.470   3.748   5.291  0.4321 -0.7960 -0.6524
 6830SOL    HW327093   0.614   3.715   5.328  0.6573 -1.1731 -1.8484
 6830SOL    MW427094   0.555   3.769   5.293  0.4002 -0.0573 -0.1013
 6831SOL     OW27095   0.632   5.679   3.540  0.4631 -0.9215 -0.8682
 6831SOL    HW227096   0.616   5.625   3.617  0.3448  0.2766 -0.0214
 6831SOL    HW327097   0.576   5.756   3.552  1.2908 -0.1785 -1.5733
 6831SOL    MW427098   0.622   5.682   3.552  0.0229 -0.4585 -0.2267
 6832SOL     OW27099   1.827   2.644   4.578  0.2592  0.3496  0.6747
 6832SOL    HW227100   1.879   2.614   4.503 -0.3745 -0.0698  0.3933
 6832SOL    HW327101   1.750   2.587   4.577 -0.8807  1.8522  0.2535
 6832SOL    MW427102   1.824   2.632   4.568  0.1945  0.7539  0.4289
 6833SOL     OW27103   5.180   0.402   4.045 -0.0736  0.1810  0.1475
 6833SOL    HW227104   5.241   0.394   4.119 -0.5164 -1.1544  0.3934
 6833SOL    HW327105   5.236   0.429   3.972  0.5351  0.5720  0.7422
 6833SOL    MW427106   5.196   0.405   4.045 -0.3484 -0.1201  0.2582
 6834SOL     OW27107   4.744   2.684   5.857  0.0472  0.2367  0.4184
 6834SOL    HW227108   4.687   2.627   5.805 -1.8727  1.6609  0.8867
 6834SOL    HW327109   4.695   2.701   5.937  1.8917  0.1256  1.6339
 6834SOL    MW427110   4.730   2.678   5.861 -0.0397  0.6060 -0.2083
 6835SOL     OW27111   3.560   5.063   4.410 -0.0815  0.0638  0.1543
 6835SOL    HW227112   3.633   5.056   4.349  0.7952 -1.6425  1.3148
 6835SOL    HW327113   3.482   5.060   4.355  0.6899  0.3889 -0.9954
 6835SOL    MW427114   3.560   5.061   4.395  0.0964  0.0621  0.3645
 6836SOL     OW27115   1.210   2.884   0.913  0.4219 -0.6263  0.0063
 6836SOL    HW227116   1.265   2.822   0.867  1.7025  0.7813 -0.4472
 6836SOL    HW327117   1.191   2.952   0.849  2.0963  1.2993  1.4146
 6836SOL    MW427118   1.215   2.885   0.899 -0.5008  0.0415  0.6955
 6837SOL     OW27119   1.837   0.325   2.327 -0.1890 -0.3048 -0.1239
 6837SOL    HW227120   1.787   0.375   2.262  1.3692  2.2814  0.5081
 6837SOL    HW327121   1.887   0.261   2.274  1.1361  1.8092 -1.6087
 6837SOL    MW427122   1.837   0.323   2.311 -0.2118 -0.0192 -0.3582
 6838SOL     OW27123   1.861   4.812   0.207  0.4140  0.6453 -0.1317
 6838SOL    HW227124   1.876   4.816   0.302 -0.8668  0.2428  0.1031
 6838SOL    HW327125   1.878   4.900   0.176 -0.8185  1.2175  0.7434
 6838SOL    MW427126   1.865   4.824   0.216 -0.0068  0.1939 -0.1627
 6839SOL     OW27127   3.170   5.379   4.810  0.0097  0.3668  0.3651
 6839SOL    HW227128   3.159   5.452   4.749  0.1805 -1.0843 -1.5064
 6839SOL    HW327129   3.248   5.402   4.861  0.3800  1.2666 -0.5678
 6839SOL    MW427130   3.179   5.392   4.809 -0.4631  0.1467  0.1792
 6840SOL     OW27131   4.407   4.049   4.276  0.3769  0.0793 -0.0610
 6840SOL    HW227132   4.399   3.992   4.352 -0.8116  2.3159  1.5766
 6840SOL    HW327133   4.379   3.994   4.202  1.4155 -2.0878  1.0822
 6840SOL    MW427134   4.402   4.034   4.276  0.4927  0.3474  0.0624
 6841SOL     OW27135   1.416   3.085   1.368 -0.1979  0.6314  0.0657
 6841SOL    HW227136   1.422   3.156   1.431 -0.8867 -0.0773  0.9607
 6841SOL    HW327137   1.322   3.075   1.352 -0.2609 -1.0904  1.1819
 6841SOL    MW427138   1.404   3.093   1.374 -0.6207 -0.4259  0.1215
 6842SOL     OW27139   1.004   2.687   1.029  0.0711 -0.0748 -0.1744
 6842SOL    HW227140   1.053   2.621   1.078  1.3901 -0.6463 -2.1526
 6842SOL    HW327141   1.068   2.754   1.007 -0.8934  1.0652  0.3326
 6842SOL    MW427142   1.019   2.687   1.033  0.1259  0.5494 -0.2552
 6843SOL     OW27143   3.732   3.680   3.124 -0.0714 -0.6831 -0.0063
 6843SOL    HW227144   3.818   3.691   3.163  0.1809 -0.0034 -0.7399
 6843SOL    HW327145   3.674   3.734   3.178 -0.0180 -1.0327  0.4041
 6843SOL    MW427146   3.736   3.689   3.136  0.2174 -0.7777 -0.2012
 6844SOL     OW27147   1.603   3.582   4.859 -0.1143  0.5324  0.6448
 6844SOL    HW227148   1.642   3.613   4.777  0.2061  1.3568  1.0947
 6844SOL    HW327149   1.517   3.625   4.861 -0.2226  0.3165  0.6256
 6844SOL    MW427150   1.597   3.592   4.848  0.6338 -0.0473  0.0974
 6845SOL     OW27151   2.027   1.059   1.931 -0.0266  0.2669  0.2228
 6845SOL    HW227152   1.984   1.025   2.009 -0.0633  1.9503  0.9824
 6845SOL    HW327153   2.102   1.109   1.964 -0.3773  1.5180 -0.7462
 6845SOL    MW427154   2.031   1.061   1.945  0.6479 -0.6760  0.7469
 6846SOL     OW27155   5.490   1.462   4.938 -0.0593 -0.4055 -0.1703
 6846SOL    HW227156   5.421   1.494   4.879 -0.5419 -0.4623  0.3539
 6846SOL    HW327157   5.561   1.436   4.879 -0.2901  0.1112 -0.6944
 6846SOL    MW427158   5.490   1.463   4.922  0.4967  0.2498  0.1558
 6847SOL     OW27159   3.762   5.686   2.523  0.4564  0.3181 -0.0500
 6847SOL    HW227160   3.807   5.749   2.580 -0.9399 -0.0950  1.5733
 6847SOL    HW327161   3.685   5.659   2.572  0.2837 -1.6485 -1.2773
 6847SOL    MW427162   3.758   5.691   2.537  0.0594 -0.6292  0.8587
 6848SOL     OW27163   2.356   3.689   1.036 -0.2186 -0.0173 -0.0344
 6848SOL    HW227164   2.444   3.692   0.999 -0.2917 -0.7494 -0.2859
 6848SOL    HW327165   2.331   3.596   1.032 -0.2409 -0.1440  1.8116
 6848SOL    MW427166   2.365   3.677   1.031 -0.4426 -0.0824 -0.7728
 6849SOL     OW27167   2.045   4.102   4.245  0.4930 -0.2005  0.2452
 6849SOL    HW227168   1.980   4.039   4.276  0.1156  0.6921  1.3014
 6849SOL    HW327169   1.994   4.178   4.217  0.7602 -1.0554 -3.0133
 6849SOL    MW427170   2.029   4.103   4.245  0.5804  0.0204 -0.2538
 6850SOL     OW27171   2.261   4.191   1.046  0.1615 -0.2482  0.2148
 6850SOL    HW227172   2.195   4.239   0.997  0.2252  0.6207  0.9366
 6850SOL    HW327173   2.330   4.256   1.062  0.6919 -0.8483  0.3857
 6850SOL    MW427174   2.261   4.206   1.042 -0.4783  0.7349 -0.3290
 6851SOL     OW27175   4.823   4.845   4.952  0.0828  0.0816  0.2543
 6851SOL    HW227176   4.837   4.922   5.007 -1.1250 -0.3739  1.2558
 6851SOL    HW327177   4.733   4.854   4.921  0.6205  0.1517 -1.4209
 6851SOL    MW427178   4.813   4.857   4.955  0.1623  0.4269  0.3048
 6852SOL     OW27179   1.104   0.144   5.649 -0.3853  0.2274  0.7487
 6852SOL    HW227180   1.054   0.083   5.703 -1.5519  1.3155  0.9422
 6852SOL    HW327181   1.045   0.166   5.577  0.8369 -0.5494 -0.5471
 6852SOL    MW427182   1.090   0.139   5.647  0.2680 -0.3541 -0.1181
 6853SOL     OW27183   3.460   0.605   6.025 -0.1046  0.6634  0.4035
 6853SOL    HW227184   3.540   0.645   5.992 -0.9395  1.7062 -0.4511
 6853SOL    HW327185   3.482   0.577   6.114  1.3174  0.5509  0.0428
 6853SOL    MW427186   3.473   0.607   6.033  0.1286 -0.4607  0.4574
 6854SOL     OW27187   4.892   5.429   0.349  0.2008 -0.4266  0.2459
 6854SOL    HW227188   4.945   5.508   0.363 -0.4852  0.5362 -2.0726
 6854SOL    HW327189   4.937   5.382   0.278 -0.7104 -0.8515 -0.0621
 6854SOL    MW427190   4.905   5.433   0.341  0.1527  0.2388 -0.0190
 6855SOL     OW27191   4.699   0.121   3.334 -0.6408 -0.1072  0.0506
 6855SOL    HW227192   4.753   0.104   3.258 -1.0102 -1.5531  0.0653
 6855SOL    HW327193   4.712   0.044   3.390  0.3279  1.3053  1.8951
 6855SOL    MW427194   4.708   0.108   3.332 -0.1219  0.4345 -0.0449
 6856SOL     OW27195   5.323   0.650   0.873  0.5314  0.5567 -0.1413
 6856SOL    HW227196   5.315   0.581   0.807  0.9738  0.5787 -0.2238
 6856SOL    HW327197   5.362   0.724   0.825 -2.6416  1.9680 -0.8468
 6856SOL    MW427198   5.327   0.651   0.858 -0.0849 -0.3804  0.3026
 6857SOL     OW27199   1.930   0.344   1.343  0.2583 -0.6999  0.1136
 6857SOL    HW227200   1.875   0.272   1.311 -0.1161 -1.2268  1.8595
 6857SOL    HW327201   1.879   0.423   1.323 -0.0313 -1.0195 -0.4316
 6857SOL    MW427202   1.916   0.345   1.336  0.1394  0.4106 -0.3933
 6858SOL     OW27203   4.221   2.527   6.216  0.2315 -0.3107  0.1060
 6858SOL    HW227204   4.272   2.479   6.281  0.4043  0.3306  0.4511
 6858SOL    HW327205   4.225   2.472   6.138  0.1423 -1.0214  0.5882
 6858SOL    MW427206   4.228   2.513   6.214  0.1920  0.2186 -0.2686
 6859SOL     OW27207   3.648   1.258   4.124  0.4203  0.1007  0.0312
 6859SOL    HW227208   3.712   1.188   4.135  1.2247  0.8282  0.1843
 6859SOL    HW327209   3.568   1.225   4.164 -0.0255 -1.7538 -2.2347
 6859SOL    MW427210   3.646   1.245   4.131  0.5789 -0.5776  0.1207
 6860SOL     OW27211   0.848   5.125   1.787  0.2483  0.1144 -0.9644
 6860SOL    HW227212   0.784   5.089   1.726 -1.8669 -0.5241  1.4276
 6860SOL    HW327213   0.867   5.053   1.847 -1.1255  1.7450  1.6468
 6860SOL    MW427214   0.842   5.111   1.787 -0.0959  0.1212 -0.2799
 6861SOL     OW27215   2.457   5.099   2.793  0.0802 -0.2528  0.1887
 6861SOL    HW227216   2.373   5.094   2.838 -0.3947 -1.1519 -0.7630
 6861SOL    HW327217   2.521   5.070   2.858 -0.0130  2.4231  1.6297
 6861SOL    MW427218   2.454   5.095   2.807 -0.0006  0.3472  0.0421
 6862SOL     OW27219   6.414   5.389   1.816 -0.1193  0.4213 -0.3427
 6862SOL    HW227220   6.376   5.317   1.765  0.1423 -0.6793  0.9408
 6862SOL    HW327221   6.341   5.450   1.828 -0.4955  0.1166 -1.0181
 6862SOL    MW427222   6.399   5.387   1.811  0.6176  0.3938 -0.4622
 6863SOL     OW27223   3.673   2.744   1.822 -0.6097  0.0450 -0.5290
 6863SOL    HW227224   3.657   2.737   1.916  2.8476  1.2318  0.2993
 6863SOL    HW327225   3.625   2.823   1.795 -0.8600  0.2384  0.4347
 6863SOL    MW427226   3.665   2.754   1.831 -0.1418 -0.1912 -0.1198
 6864SOL     OW27227   0.952   6.217   1.539 -0.2018 -0.0661 -0.2899
 6864SOL    HW227228   0.976   6.274   1.612 -0.4426  0.8809 -0.9394
 6864SOL    HW327229   0.934   6.277   1.467 -0.8801 -0.9446 -0.8632
 6864SOL    MW427230   0.953   6.232   1.539  0.1834  0.1126 -0.2309
 6865SOL     OW27231   1.386   3.107   0.365  0.1895  0.6670  0.1445
 6865SOL    HW227232   1.465   3.143   0.404  0.5684 -0.7820  0.7582
 6865SOL    HW327233   1.320   3.114   0.434  0.6274 -1.0685  0.7663
 6865SOL    MW427234   1.388   3.113   0.379  0.0438  0.3471 -0.1735
 6866SOL     OW27235   5.403   4.456   1.278  0.1954 -0.6837  0.0288
 6866SOL    HW227236   5.415   4.550   1.265  3.6613 -0.9336  0.5273
 6866SOL    HW327237   5.428   4.440   1.369 -2.3038 -1.9063  0.5934
 6866SOL    MW427238   5.408   4.466   1.288  0.4581 -0.2750  0.0564
 6867SOL     OW27239   2.070   2.746   2.477  0.1927  0.1683  0.0550
 6867SOL    HW227240   1.998   2.777   2.531 -0.0449  0.3179 -0.3435
 6867SOL    HW327241   2.033   2.675   2.425 -0.1495  1.3436 -1.3828
 6867SOL    MW427242   2.056   2.741   2.477  0.3071  0.2479 -0.1419
 6868SOL     OW27243   2.327   5.437   2.461  0.1354  0.1962  0.1290
 6868SOL    HW227244   2.262   5.411   2.527 -0.2061  1.0721  0.1526
 6868SOL    HW327245   2.411   5.423   2.504 -0.0702  0.2793  0.5717
 6868SOL    MW427246   2.329   5.431   2.476  0.3224 -0.8461  0.1807
 6869SOL     OW27247   3.076   4.988   0.824 -0.4649 -0.3861 -0.3758
 6869SOL    HW227248   3.089   4.953   0.735 -0.4690 -0.0935 -0.4918
 6869SOL    HW327249   2.991   5.032   0.820 -0.4313 -0.3114 -0.2441
 6869SOL    MW427250   3.066   4.989   0.812 -0.0502 -0.0321  0.0239
 6870SOL     OW27251   3.118   5.244   1.057  0.1838  0.3425  0.4705
 6870SOL    HW227252   3.052   5.290   1.006 -0.2883  0.7594  1.4368
 6870SOL    HW327253   3.202   5.271   1.018 -0.1755  0.3474 -0.3204
 6870SOL    MW427254   3.121   5.254   1.045 -0.0417  0.4478 -0.4406
 6871SOL     OW27255   0.308   2.640   1.376  0.1039  0.4452  0.3480
 6871SOL    HW227256   0.333   2.597   1.295  1.5551 -0.0966  1.0524
 6871SOL    HW327257   0.246   2.579   1.417 -0.0659  0.3826  0.0055
 6871SOL    MW427258   0.303   2.626   1.371 -0.2426 -0.3491  0.0543
 6872SOL     OW27259   4.451   2.958   3.407  0.1502 -0.0512 -0.2721
 6872SOL    HW227260   4.493   3.026   3.354 -0.2099 -0.7572 -1.4825
 6872SOL    HW327261   4.411   2.899   3.344  0.8200 -1.6397  0.7282
 6872SOL    MW427262   4.452   2.959   3.392  0.0924 -0.4929 -0.3297
 6873SOL     OW27263   3.750   6.255   6.009 -0.2617 -0.1884 -0.0525
 6873SOL    HW227264   3.663   6.265   6.048 -0.2334 -2.1167  0.6133
 6873SOL    HW327265   3.737   6.278   5.917 -1.2576  0.4217  0.2158
 6873SOL    MW427266   3.737   6.259   6.002 -0.5821  0.0058  0.0549
 6874SOL     OW27267   5.414   3.929   3.721  0.6075  0.1723 -0.1392
 6874SOL    HW227268   5.351   3.868   3.683 -0.0832 -0.8055  2.3464
 6874SOL    HW327269   5.468   3.957   3.647 -0.6763 -1.4791 -1.8019
 6874SOL    MW427270   5.413   3.924   3.706 -0.2738 -0.6136  0.4579
 6875SOL     OW27271   1.634   6.098   2.358 -0.4208 -0.1980 -0.4487
 6875SOL    HW227272   1.545   6.064   2.353  0.0072 -1.9910  2.1536
 6875SOL    HW327273   1.682   6.050   2.290 -0.9170 -1.2043 -0.1141
 6875SOL    MW427274   1.629   6.087   2.349 -0.1312 -0.1709 -0.0219
 6876SOL     OW27275   0.278   1.742   4.440 -0.3282  0.3736 -0.2167
 6876SOL    HW227276   0.272   1.648   4.426  2.1206  0.0152  0.6882
 6876SOL    HW327277   0.348   1.771   4.381 -0.0506  1.3418  0.5437
 6876SOL    MW427278   0.287   1.734   4.430 -0.3852  0.0464  0.3817
 6877SOL     OW27279   0.571   3.626   0.828 -0.4138 -0.4032 -0.5957
 6877SOL    HW227280   0.615   3.544   0.850 -0.7744 -0.6068 -0.6226
 6877SOL    HW327281   0.499   3.632   0.891  0.5483  0.6760  0.4195
 6877SOL    MW427282   0.567   3.616   0.839 -0.4959 -0.1403 -0.2666
 6878SOL     OW27283   5.592   5.569   6.185  0.0463 -0.6625 -0.0788
 6878SOL    HW227284   5.634   5.587   6.101  0.0916  0.9271  0.2519
 6878SOL    HW327285   5.653   5.604   6.250  0.1131 -2.0701  0.6465
 6878SOL    MW427286   5.606   5.576   6.183  0.3457 -0.5008 -0.2506
 6879SOL     OW27287   6.220   0.251   3.449  0.4881 -0.3676  0.6055
 6879SOL    HW227288   6.259   0.287   3.369  1.4978  1.3559  1.8255
 6879SOL    HW327289   6.146   0.307   3.468  1.2310  0.2693  1.7491
 6879SOL    MW427290   6.216   0.263   3.441 -0.2060 -0.0999 -0.2238
 6880SOL     OW27291   1.097   4.464   5.257  0.1750 -0.5559  0.1200
 6880SOL    HW227292   1.011   4.494   5.286  0.9505  1.2036  0.7960
 6880SOL    HW327293   1.127   4.406   5.327 -0.4916 -1.2660 -0.1751
 6880SOL    MW427294   1.090   4.460   5.270  0.6191 -0.0160  0.1226
 6881SOL     OW27295   2.620   0.126   5.208  0.3323 -0.3241 -0.1205
 6881SOL    HW227296   2.614   0.087   5.295  0.5910 -2.2122 -0.8905
 6881SOL    HW327297   2.546   0.089   5.160 -0.6299  1.7774 -0.3503
 6881SOL    MW427298   2.610   0.116   5.213  0.2905  0.0751  0.4921
 6882SOL     OW27299   3.774   3.587   2.076  0.0234 -0.3793  0.5989
 6882SOL    HW227300   3.742   3.678   2.074  0.5340 -0.1300  2.4527
 6882SOL    HW327301   3.866   3.594   2.048  0.1801 -0.2532  1.1293
 6882SOL    MW427302   3.782   3.600   2.072 -0.1074 -0.2223 -0.4293
 6883SOL     OW27303   1.152   5.775   0.558 -0.2781  0.2348 -0.7667
 6883SOL    HW227304   1.080   5.718   0.585 -0.0353  0.2188 -0.1353
 6883SOL    HW327305   1.138   5.789   0.464 -1.9388  1.4511 -0.3718
 6883SOL    MW427306   1.140   5.769   0.549 -0.2867  0.0415 -0.5130
 6884SOL     OW27307   2.539   6.041   5.921  0.0986 -0.2343 -0.1980
 6884SOL    HW227308   2.573   5.968   5.972 -0.4300 -1.3278 -1.3742
 6884SOL    HW327309   2.608   6.060   5.857 -0.7065 -1.3035 -1.4412
 6884SOL    MW427310   2.553   6.034   5.919  0.0432  0.3052  0.0915
 6885SOL     OW27311   2.305   0.562   1.000 -0.9464  0.0656  0.6987
 6885SOL    HW227312   2.256   0.485   0.971 -0.9892 -0.0147  0.9786
 6885SOL    HW327313   2.262   0.588   1.082 -0.0357 -0.4818  1.3781
 6885SOL    MW427314   2.293   0.555   1.007 -0.5926 -0.6301  0.0067
 6886SOL     OW27315   4.808   2.439   0.380 -0.5795  0.1764 -0.0100
 6886SOL    HW227316   4.851   2.355   0.366 -3.0653 -1.3847  1.1392
 6886SOL    HW327317   4.725   2.432   0.333  0.0213  2.8670 -1.7001
 6886SOL    MW427318   4.803   2.427   0.372 -0.4142  0.3027 -0.0780
 6887SOL     OW27319   3.645   5.759   0.603  0.4802 -1.0262  0.0917
 6887SOL    HW227320   3.719   5.748   0.543  0.3027  1.9560 -0.8365
 6887SOL    HW327321   3.687   5.776   0.688  0.7775 -1.7421  0.1018
 6887SOL    MW427322   3.660   5.760   0.606 -0.4131  0.0678 -0.3999
 6888SOL     OW27323   5.913   1.178   0.822  0.6328  0.0451  0.2886
 6888SOL    HW227324   5.901   1.240   0.894  0.5280  0.9235 -0.4665
 6888SOL    HW327325   5.850   1.206   0.755  1.2006 -0.3355 -0.4184
 6888SOL    MW427326   5.903   1.190   0.822  0.2697  0.1851 -0.1852
 6889SOL     OW27327   5.813   0.318   4.825 -0.3058  0.4871  0.3001
 6889SOL    HW227328   5.859   0.234   4.822 -3.7752 -1.5985 -0.4842
 6889SOL    HW327329   5.822   0.354   4.736  0.1128  0.2818  0.2595
 6889SOL    MW427330   5.820   0.311   4.813  0.1088 -0.0131 -0.3182
 6890SOL     OW27331   0.154   3.510   3.759  0.4281 -0.1490  0.0903
 6890SOL    HW227332   0.101   3.504   3.839 -0.7520 -0.6258 -0.6965
 6890SOL    HW327333   0.181   3.420   3.742 -0.3298 -0.2349 -0.6933
 6890SOL    MW427334   0.150   3.498   3.767  0.2158  0.2504  0.3280
 6891SOL     OW27335   4.318   5.357   5.946 -0.3185 -0.0760 -0.2840
 6891SOL    HW227336   4.373   5.435   5.955  1.8959 -1.5952  0.2996
 6891SOL    HW327337   4.235   5.390   5.911  0.6459  2.4665 -0.4069
 6891SOL    MW427338   4.314   5.372   5.942  1.0496 -0.0053 -0.0726
 6892SOL     OW27339   0.865   3.360   3.951  0.2613  0.4251 -0.0861
 6892SOL    HW227340   0.885   3.451   3.927  1.3304 -0.1151 -1.3422
 6892SOL    HW327341   0.902   3.307   3.880  2.4968 -1.2073  2.1209
 6892SOL    MW427342   0.873   3.365   3.939 -0.5355  0.3444 -0.1621
 6893SOL     OW27343   6.059   1.478   4.824  0.4510 -0.0958  0.1431
 6893SOL    HW227344   6.122   1.508   4.889 -0.5165 -1.0487  1.5879
 6893SOL    HW327345   5.985   1.538   4.833 -0.1495 -0.9079  0.7507
 6893SOL    MW427346   6.058   1.490   4.833  0.4708 -0.2935 -0.3080
 6894SOL     OW27347   3.883   1.810   2.217  0.4111  0.3629  0.4420
 6894SOL    HW227348   3.879   1.736   2.156 -1.4908  0.2257  0.6563
 6894SOL    HW327349   3.806   1.863   2.195  1.7396  2.3477  0.2738
 6894SOL    MW427350   3.872   1.807   2.206 -0.1960 -0.7190  0.1422
 6895SOL     OW27351   0.647   1.703   1.361  0.2011 -0.7227  0.4139
 6895SOL    HW227352   0.715   1.723   1.425 -0.1706  0.6871  0.3946
 6895SOL    HW327353   0.682   1.732   1.277 -0.0021 -0.9636  0.2435
 6895SOL    MW427354   0.660   1.709   1.359 -0.0139  0.1470 -0.0031
 6896SOL     OW27355   1.555   3.295   2.186 -0.1552 -0.2054  0.5031
 6896SOL    HW227356   1.554   3.237   2.109 -2.1625 -2.2453  1.9295
 6896SOL    HW327357   1.586   3.239   2.257 -0.9218  0.8679  1.7069
 6896SOL    MW427358   1.559   3.280   2.185 -0.1060 -0.1244  0.3933
 6897SOL     OW27359   3.686   6.226   5.033 -0.1746 -0.0666  1.1291
 6897SOL    HW227360   3.645   6.149   4.993  0.7070 -0.1031  0.2641
 6897SOL    HW327361   3.667   6.297   4.972  1.6162 -0.2223  0.3234
 6897SOL    MW427362   3.678   6.225   5.020  0.4413 -0.2346  0.1613
 6898SOL     OW27363   4.921   3.552   6.054  0.6526 -0.0250  0.0960
 6898SOL    HW227364   4.866   3.589   5.986  0.6727 -1.4774 -0.7631
 6898SOL    HW327365   4.859   3.513   6.116  0.6644 -0.8468 -0.3901
 6898SOL    MW427366   4.906   3.552   6.053 -0.4119 -0.2502 -0.2587
 6899SOL     OW27367   2.322   5.696   0.969 -0.0717  0.1129  0.3611
 6899SOL    HW227368   2.228   5.700   0.988  0.3501  2.2320  2.4111
 6899SOL    HW327369   2.333   5.749   0.890 -0.7475 -1.5830 -0.9392
 6899SOL    MW427370   2.311   5.703   0.961  0.0776 -0.1350 -0.4238
 6900SOL     OW27371   3.544   3.030   4.217  0.1896  0.1320  0.5462
 6900SOL    HW227372   3.562   2.949   4.264 -0.9207 -0.1071  0.5821
 6900SOL    HW327373   3.492   3.003   4.141  1.5633  0.5684 -0.6064
 6900SOL    MW427374   3.540   3.016   4.213 -0.0050 -0.2892 -0.6541
 6901SOL     OW27375   0.364   4.042   1.170 -0.1486  0.4626  0.2175
 6901SOL    HW227376   0.447   4.053   1.125 -0.1324 -0.2654  0.0600
 6901SOL    HW327377   0.331   3.957   1.141 -0.1334 -0.0320  1.5727
 6901SOL    MW427378   0.370   4.032   1.160  0.2052  0.2577  0.3603
 6902SOL     OW27379   2.815   5.362   0.033  0.1136 -0.5544  0.1099
 6902SOL    HW227380   2.821   5.456   0.014 -0.1858 -0.1955  1.6098
 6902SOL    HW327381   2.831   5.319  -0.051 -1.3323  0.8673 -0.9641
 6902SOL    MW427382   2.818   5.369   0.019 -0.0939  0.3856 -0.7837
 6903SOL     OW27383   5.270   3.254   0.258  0.5442  0.4681  0.0142
 6903SOL    HW227384   5.342   3.316   0.249 -0.2177  1.3800  0.0305
 6903SOL    HW327385   5.234   3.245   0.170  0.9017 -0.2755 -0.0635
 6903SOL    MW427386   5.274   3.261   0.245 -0.5458 -0.4543 -0.2213
 6904SOL     OW27387   1.081   3.130   4.031 -0.5911  0.2898 -0.2747
 6904SOL    HW227388   1.064   3.070   4.104  0.0010  1.5688  0.9724
 6904SOL    HW327389   1.162   3.099   3.992 -0.7923 -0.2741 -0.2438
 6904SOL    MW427390   1.090   3.118   4.036  0.3918  0.1750 -0.1335
 6905SOL     OW27391   2.368   0.014   5.115  0.0403  0.4110  0.2332
 6905SOL    HW227392   2.325   0.094   5.082 -1.1551 -0.4243 -0.2929
 6905SOL    HW327393   2.352  -0.051   5.047 -0.7411 -0.8227  1.5383
 6905SOL    MW427394   2.360   0.016   5.101 -0.5205 -0.2034 -0.2672
 6906SOL     OW27395   2.347   2.898   4.937 -0.2237 -0.2581  0.7080
 6906SOL    HW227396   2.375   2.868   5.023  2.1995  0.1373  0.1450
 6906SOL    HW327397   2.346   2.994   4.944 -1.0518 -0.2570  0.5913
 6906SOL    MW427398   2.351   2.907   4.949  0.0660  0.2431 -0.6316
 6907SOL     OW27399   3.362   4.176   6.202 -0.9448  0.0412 -0.4265
 6907SOL    HW227400   3.317   4.165   6.118 -0.6419  0.2864 -0.6285
 6907SOL    HW327401   3.420   4.101   6.208 -1.0134 -0.0103 -0.4062
 6907SOL    MW427402   3.364   4.165   6.192 -0.7929 -0.0195  0.1033
 6908SOL     OW27403   0.055   5.315   0.892 -0.0403  0.1688 -0.1106
 6908SOL    HW227404   0.079   5.397   0.849 -1.2759  1.1987  1.0802
 6908SOL    HW327405  -0.032   5.295   0.856 -0.6977  0.5774  1.1995
 6908SOL    MW427406   0.047   5.323   0.881  0.2078  0.6517  0.3262
 6909SOL     OW27407   3.421   2.008   5.614 -0.7925 -0.3024 -0.0615
 6909SOL    HW227408   3.501   2.018   5.665 -1.3109 -0.3574  0.7868
 6909SOL    HW327409   3.438   1.933   5.556  0.1113  0.2982 -0.5882
 6909SOL    MW427410   3.434   1.999   5.613 -0.9165  0.5819  0.0324
 6910SOL     OW27411   0.337   0.716   6.369  0.0675 -0.2021 -0.2055
 6910SOL    HW227412   0.254   0.668   6.368 -0.1309  0.0186  1.5786
 6910SOL    HW327413   0.325   0.783   6.436  0.3324  2.4566 -2.6310
 6910SOL    MW427414   0.324   0.718   6.378  0.7855  0.2350 -0.0637
 6911SOL     OW27415   5.654   1.871   4.804 -0.2041  0.1564  0.0062
 6911SOL    HW227416   5.734   1.921   4.815  0.1132 -0.6764  1.7632
 6911SOL    HW327417   5.684   1.785   4.772 -0.6364  0.5996 -1.7181
 6911SOL    MW427418   5.668   1.866   4.801 -0.1377 -0.6444  0.1530
 6912SOL     OW27419   2.009   2.635   4.798  0.5329 -0.2771  0.4380
 6912SOL    HW227420   1.961   2.667   4.874 -0.8600 -1.6760  0.2112
 6912SOL    HW327421   1.945   2.639   4.726  0.9811 -1.4760 -0.0459
 6912SOL    MW427422   1.994   2.640   4.798 -0.8644 -0.9589  0.3966
 6913SOL     OW27423   3.589   6.044   0.895  0.2762 -0.7125 -0.2152
 6913SOL    HW227424   3.512   6.012   0.942 -0.0538 -0.3025 -0.4791
 6913SOL    HW327425   3.556   6.112   0.837  1.1298  0.9577  1.1473
 6913SOL    MW427426   3.574   6.048   0.894 -0.2346 -0.0529  0.0453
 6914SOL     OW27427   5.172   3.369   4.039 -0.0887 -0.1583 -0.3420
 6914SOL    HW227428   5.077   3.379   4.036 -0.1009 -0.4831 -1.4264
 6914SOL    HW327429   5.188   3.284   3.999  0.6795  0.0353 -0.4553
 6914SOL    MW427430   5.161   3.359   4.034  0.1820  0.0521  0.0214
 6915SOL     OW27431   0.040   3.994   3.641  0.3274  0.0707  0.5706
 6915SOL    HW227432   0.133   3.972   3.650  1.2045  2.4643 -1.2058
 6915SOL    HW327433   0.023   4.056   3.712  0.3939  0.3667  0.3337
 6915SOL    MW427434   0.050   4.000   3.651  0.1397 -0.0625  0.1254
 6916SOL     OW27435   1.428   5.706   0.597  0.1889  0.2754  0.0880
 6916SOL    HW227436   1.343   5.742   0.570  1.1851  1.6499 -1.4451
 6916SOL    HW327437   1.439   5.628   0.544  0.6772  1.1474 -1.1458
 6916SOL    MW427438   1.418   5.701   0.587  0.0061  0.1906  0.0849
 6917SOL     OW27439   0.492   2.928   3.328 -0.2536  0.2793  0.0650
 6917SOL    HW227440   0.425   2.966   3.272  0.4160  0.6482 -0.5028
 6917SOL    HW327441   0.485   2.976   3.410 -0.1443  0.8751 -0.2732
 6917SOL    MW427442   0.482   2.939   3.332  0.5868  0.0150  0.0814
 6918SOL     OW27443   3.808   1.682   2.805  0.0061  0.6074  0.1615
 6918SOL    HW227444   3.822   1.716   2.893 -0.9407 -0.1680  0.6249
 6918SOL    HW327445   3.823   1.588   2.812  0.4240  0.6049 -0.6186
 6918SOL    MW427446   3.812   1.674   2.817 -0.2954 -0.3842 -0.3148
 6919SOL     OW27447   0.570   6.372   6.400 -0.0896 -0.3462  0.3063
 6919SOL    HW227448   0.638   6.333   6.455  0.4143  0.0414 -0.0321
 6919SOL    HW327449   0.510   6.300   6.382  0.0784 -0.6272  0.8364
 6919SOL    MW427450   0.571   6.358   6.405  0.1788 -0.6976 -0.1606
 6920SOL     OW27451   5.736   6.202   3.527  0.1167  0.9406 -0.3438
 6920SOL    HW227452   5.766   6.180   3.438  0.8414 -1.2170  0.3748
 6920SOL    HW327453   5.789   6.278   3.552  1.9076 -0.1330 -0.7451
 6920SOL    MW427454   5.747   6.209   3.518 -0.2399  0.4699  0.1342
 6921SOL     OW27455   3.187   5.696   0.290  0.4176 -0.3044 -0.2757
 6921SOL    HW227456   3.163   5.650   0.371 -0.7712 -0.5611 -0.7508
 6921SOL    HW327457   3.152   5.784   0.302 -0.3460 -0.5289 -0.7584
 6921SOL    MW427458   3.179   5.702   0.303 -0.6135  0.0303 -0.4187
 6922SOL     OW27459   1.988   4.819   1.916 -0.3704 -0.3815 -0.0441
 6922SOL    HW227460   2.002   4.878   1.990 -1.4132  0.7587 -0.7170
 6922SOL    HW327461   2.074   4.781   1.898 -0.1032 -0.7036  1.7418
 6922SOL    MW427462   2.001   4.821   1.924 -0.4606 -0.1920  0.2951
 6923SOL     OW27463   0.340  -0.005   1.363 -0.3319  0.4533  0.1099
 6923SOL    HW227464   0.320   0.088   1.350  0.7838  1.1481  2.7001
 6923SOL    HW327465   0.435  -0.010   1.364 -0.3255 -1.0794 -1.7405
 6923SOL    MW427466   0.350   0.007   1.361 -0.2573 -0.0842  0.0909
 6924SOL     OW27467   3.506   0.923   0.609 -0.3992  0.3303  0.0549
 6924SOL    HW227468   3.540   1.010   0.588 -0.7442  0.9347  1.7736
 6924SOL    HW327469   3.427   0.914   0.556 -0.1177  0.8780 -0.4665
 6924SOL    MW427470   3.500   0.934   0.600 -0.4584 -0.1420 -0.3831
 6925SOL     OW27471   0.034   5.066   3.170 -0.0632 -0.0147  0.2257
 6925SOL    HW227472  -0.039   5.084   3.111  0.0848 -2.8871 -1.0220
 6925SOL    HW327473   0.101   5.130   3.146 -0.2933 -0.6069 -2.3107
 6925SOL    MW427474   0.033   5.077   3.159 -0.1351  0.0665 -0.2289
 6926SOL     OW27475   2.593   5.809   4.856  0.0879 -0.1245  0.1470
 6926SOL    HW227476   2.540   5.734   4.884 -1.1003 -0.8822 -3.5421
 6926SOL    HW327477   2.532   5.863   4.806  2.1541  0.3227 -2.0459
 6926SOL    MW427478   2.578   5.806   4.853 -0.4203  0.0226 -0.2650
 6927SOL     OW27479   4.266   4.292   0.289 -0.4610 -0.1720  0.3568
 6927SOL    HW227480   4.300   4.212   0.328 -1.8763 -0.5553  0.8343
 6927SOL    HW327481   4.188   4.265   0.241 -1.0714  0.9337  0.6738
 6927SOL    MW427482   4.260   4.278   0.288  0.1519  0.3389 -0.9883
 6928SOL     OW27483   0.523   3.738   0.534 -0.0031  0.7618  0.1946
 6928SOL    HW227484   0.477   3.820   0.515 -0.7452  0.4020  0.3931
 6928SOL    HW327485   0.454   3.672   0.531  0.6617  0.0834 -0.3965
 6928SOL    MW427486   0.508   3.740   0.531 -0.7946  0.2125  0.3534
 6929SOL     OW27487   0.614   4.233   0.739 -0.0242 -0.1926  0.5057
 6929SOL    HW227488   0.647   4.143   0.745 -0.2785 -0.2195  1.7210
 6929SOL    HW327489   0.634   4.272   0.824  2.7427  1.8705 -0.9308
 6929SOL    MW427490   0.621   4.226   0.751 -0.0964 -0.1253 -0.1560
 6930SOL     OW27491   5.572   5.219   0.129 -0.3021 -0.5546 -0.1954
 6930SOL    HW227492   5.579   5.159   0.203 -0.7820  0.8743  1.0509
 6930SOL    HW327493   5.571   5.306   0.168 -2.8756  0.1866 -1.6623
 6930SOL    MW427494   5.573   5.223   0.144 -0.3951 -0.4220  0.1735
 6931SOL     OW27495   6.274   2.573   4.508  0.0775  0.2936  0.4675
 6931SOL    HW227496   6.279   2.660   4.547 -0.3715 -0.3958  2.1329
 6931SOL    HW327497   6.245   2.516   4.579  0.2520 -1.2075 -0.6144
 6931SOL    MW427498   6.271   2.577   4.522  0.9129 -0.1059  0.0062
 6932SOL     OW27499   4.086   4.879   1.873  0.0996  0.7032 -0.4025
 6932SOL    HW227500   4.099   4.931   1.793  0.6132 -1.2005 -1.6422
 6932SOL    HW327501   3.992   4.887   1.891  0.1722  2.0767 -0.5124
 6932SOL    MW427502   4.075   4.887   1.865  0.8893 -0.4381  0.4707
 6933SOL     OW27503   4.528   3.095   3.119  0.4252 -0.0761  0.3455
 6933SOL    HW227504   4.436   3.074   3.137  0.3846  0.4620  0.7915
 6933SOL    HW327505   4.556   3.027   3.057 -0.0019 -0.7942  0.9202
 6933SOL    MW427506   4.520   3.083   3.113  0.9774  0.1746 -0.0297
 6934SOL     OW27507   4.357   5.911   4.682 -0.2712  0.2437  0.3924
 6934SOL    HW227508   4.397   5.829   4.656  0.6759  0.5619  0.8128
 6934SOL    HW327509   4.387   5.975   4.617 -0.5615  0.3751  0.3834
 6934SOL    MW427510   4.366   5.909   4.670  0.1505 -0.2035 -0.1271
 6935SOL     OW27511   6.163   3.909   4.026  0.2039 -0.2408  0.1315
 6935SOL    HW227512   6.151   3.900   4.121  1.4502 -1.8152  0.1741
 6935SOL    HW327513   6.074   3.914   3.991 -0.3976 -2.4429  1.1629
 6935SOL    MW427514   6.149   3.909   4.034 -0.1517 -0.4546 -0.2080
 6936SOL     OW27515   1.457   5.215   0.610 -0.4870 -0.5629  0.5066
 6936SOL    HW227516   1.454   5.298   0.562 -1.6021 -0.3782  0.8607
 6936SOL    HW327517   1.546   5.212   0.646 -0.8537  1.2241  1.7345
 6936SOL    MW427518   1.469   5.226   0.608 -0.2445 -0.5849 -0.3015
 6937SOL     OW27519   3.981   3.749   0.873  0.3934  0.2293  0.1564
 6937SOL    HW227520   3.904   3.765   0.817 -0.9739 -2.6150  1.0488
 6937SOL    HW327521   4.000   3.835   0.911 -1.5812  1.2899 -1.0187
 6937SOL    MW427522   3.973   3.763   0.870 -0.2003  0.6741  0.3771
 6938SOL     OW27523   5.398   2.034   1.336  0.0557 -0.3867  0.4911
 6938SOL    HW227524   5.304   2.050   1.323 -0.1986 -0.8637  1.5778
 6938SOL    HW327525   5.436   2.042   1.249 -0.6685  1.8698  0.3234
 6938SOL    MW427526   5.391   2.037   1.323 -0.0322  0.2741  0.7363
 6939SOL     OW27527   3.538   3.353   0.446  0.3116  0.3285  0.1359
 6939SOL    HW227528   3.589   3.297   0.388  0.4938 -0.4460  1.0192
 6939SOL    HW327529   3.450   3.352   0.408  0.6986  0.8690 -0.8274
 6939SOL    MW427530   3.533   3.346   0.433 -0.0464 -0.6923 -0.0211
 6940SOL     OW27531   3.161   2.053   2.344 -0.0937  0.0546 -0.4587
 6940SOL    HW227532   3.220   1.991   2.385  1.5507  0.3453 -2.2868
 6940SOL    HW327533   3.185   2.138   2.383 -1.7321 -0.2318  1.3619
 6940SOL    MW427534   3.172   2.056   2.355 -0.5720 -0.5478  0.2690
 6941SOL     OW27535   3.580   0.182   0.053 -0.2693  0.5501 -0.1905
 6941SOL    HW227536   3.667   0.192   0.016  0.1140  0.1432  0.5671
 6941SOL    HW327537   3.528   0.250   0.011  0.4799  0.9766 -0.4469
 6941SOL    MW427538   3.584   0.192   0.043  0.1408 -0.2106  0.5927
 6942SOL     OW27539   0.694   5.048   5.718 -0.1381  0.2049 -0.9199
 6942SOL    HW227540   0.676   4.982   5.651 -0.2323 -1.1163  0.3567
 6942SOL    HW327541   0.732   5.121   5.670 -0.8589 -0.4106 -2.5028
 6942SOL    MW427542   0.696   5.049   5.703 -0.0213 -0.9517 -0.7492
 6943SOL     OW27543   2.562   3.983   2.562 -0.3143  0.0411  0.0719
 6943SOL    HW227544   2.614   4.046   2.613 -0.2024  0.7881 -0.9392
 6943SOL    HW327545   2.506   4.038   2.507  1.0710 -0.6884 -2.1709
 6943SOL    MW427546   2.561   3.999   2.562 -0.3660 -0.4593  0.3298
 6944SOL     OW27547   5.029   0.564   4.676 -0.0401 -0.4366  0.0688
 6944SOL    HW227548   5.094   0.557   4.606 -0.2379 -2.2427  0.0043
 6944SOL    HW327549   4.985   0.479   4.675  0.4421 -0.7923  2.8828
 6944SOL    MW427550   5.031   0.552   4.666  1.1907 -0.3233 -0.1470
 6945SOL     OW27551   3.359   0.610   4.019  0.2617  0.0364  0.5294
 6945SOL    HW227552   3.401   0.680   4.069  0.9389 -0.5461  0.8023
 6945SOL    HW327553   3.425   0.585   3.954 -0.1070 -0.1101  0.2096
 6945SOL    MW427554   3.373   0.616   4.017  0.1308  0.5599  0.2609
 6946SOL     OW27555   6.160   2.838   0.690  0.3351  0.2218 -0.1457
 6946SOL    HW227556   6.218   2.803   0.623 -1.3923 -1.6083 -0.7710
 6946SOL    HW327557   6.148   2.766   0.752  0.3748  1.2607  1.1184
 6946SOL    MW427558   6.166   2.824   0.689  0.1260  0.6102  0.1922
 6947SOL     OW27559   5.328   0.390   2.648  0.1142  0.4474  0.3845
 6947SOL    HW227560   5.325   0.481   2.617 -3.5740  0.2393 -0.3059
 6947SOL    HW327561   5.275   0.390   2.727 -2.1664 -1.4400 -1.0092
 6947SOL    MW427562   5.321   0.402   2.654 -0.2314  0.0415  0.6059
 6948SOL     OW27563   2.153   4.343   1.656  0.2645  0.3435 -0.1399
 6948SOL    HW227564   2.231   4.395   1.637  0.1478  0.4956 -0.2085
 6948SOL    HW327565   2.186   4.266   1.702  0.1821  1.7655  2.4877
 6948SOL    MW427566   2.168   4.340   1.659 -0.0116  0.0178  0.1702
 6949SOL     OW27567   3.371   1.030   0.330 -0.4289 -0.2112 -0.6362
 6949SOL    HW227568   3.306   1.058   0.395 -1.0807 -1.6166 -0.6570
 6949SOL    HW327569   3.400   0.944   0.359  0.2833 -0.2746 -1.4779
 6949SOL    MW427570   3.366   1.023   0.342 -0.2067 -0.3886  0.1993
 6950SOL     OW27571   2.178   5.286   3.753 -0.4091  0.0825 -0.6102
 6950SOL    HW227572   2.228   5.251   3.679 -1.3581 -1.8799 -0.3776
 6950SOL    HW327573   2.100   5.232   3.757 -1.7449  1.9547  0.1218
 6950SOL    MW427574   2.174   5.274   3.743  0.0601 -0.5136 -0.1709
 6951SOL     OW27575   2.178   3.228   2.828 -0.2104 -0.2157 -0.4422
 6951SOL    HW227576   2.213   3.257   2.744  0.5718  0.1641  0.0089
 6951SOL    HW327577   2.168   3.308   2.879 -0.2042 -0.4953  0.0027
 6951SOL    MW427578   2.181   3.242   2.824 -0.9460 -0.3420  0.0707
 6952SOL     OW27579   0.096   6.170   1.411 -0.2760  0.1042 -0.4434
 6952SOL    HW227580   0.009   6.209   1.417 -0.5951 -0.6135 -0.4077
 6952SOL    HW327581   0.154   6.238   1.445 -1.2285 -0.8305  3.5703
 6952SOL    MW427582   0.092   6.184   1.417 -0.2126  0.3618 -0.1403
 6953SOL     OW27583   4.447   0.035   5.148  0.1995 -0.3997 -0.2708
 6953SOL    HW227584   4.393  -0.031   5.193 -1.0736 -0.5583 -1.9378
 6953SOL    HW327585   4.402   0.050   5.065 -0.0098  3.1835  0.3335
 6953SOL    MW427586   4.434   0.028   5.143  0.0470 -0.0523  0.4686
 6954SOL     OW27587   3.450   2.163   0.623 -0.2643 -0.2151  0.7930
 6954SOL    HW227588   3.490   2.245   0.653 -0.2777  0.0500  0.0948
 6954SOL    HW327589   3.524   2.104   0.608 -0.2465 -0.2886  1.1597
 6954SOL    MW427590   3.465   2.166   0.625 -0.4435  0.2874  0.7394
 6955SOL     OW27591   3.757   1.377   2.725 -0.1526  0.5188  0.0925
 6955SOL    HW227592   3.753   1.343   2.636 -0.4849  1.0627 -0.1038
 6955SOL    HW327593   3.687   1.442   2.729 -1.4013 -0.8204  1.3218
 6955SOL    MW427594   3.747   1.381   2.714  0.5963  0.2450 -0.4583
 6956SOL     OW27595   5.174   6.084   5.006  0.1654 -0.0741 -0.2740
 6956SOL    HW227596   5.231   6.019   4.962  1.1837  1.5741 -1.5180
 6956SOL    HW327597   5.110   6.108   4.939 -0.7498 -0.3898  0.4645
 6956SOL    MW427598   5.173   6.078   4.991  0.1124 -0.0941  0.2859
 6957SOL     OW27599   2.165   1.475   2.028  0.0991  0.1045 -0.4282
 6957SOL    HW227600   2.218   1.395   2.026  1.6248  0.8721  2.6310
 6957SOL    HW327601   2.078   1.446   2.054 -0.0513 -0.7837 -1.8275
 6957SOL    MW427602   2.161   1.461   2.031  0.3452  0.0679 -0.3918
 6958SOL     OW27603   2.301   2.494   2.366  0.3927  0.3031 -0.2116
 6958SOL    HW227604   2.285   2.570   2.311  2.2339  0.5751 -0.4419
 6958SOL    HW327605   2.323   2.530   2.452 -0.3595 -0.0458  0.1382
 6958SOL    MW427606   2.302   2.509   2.370  0.2430 -0.1599  0.3005
 6959SOL     OW27607   4.499   0.083   3.739  0.3070  0.1390  0.2332
 6959SOL    HW227608   4.445   0.008   3.712 -0.2858  1.1359 -1.4611
 6959SOL    HW327609   4.442   0.133   3.797  0.3474 -0.1666  0.5441
 6959SOL    MW427610   4.484   0.079   3.743  0.4335  0.2298 -0.0966
 6960SOL     OW27611   2.513   0.521   2.168  0.5699  0.2704 -0.2526
 6960SOL    HW227612   2.555   0.604   2.190 -1.0556  0.9745  0.3946
 6960SOL    HW327613   2.447   0.544   2.102 -1.1709 -0.1264  1.2656
 6960SOL    MW427614   2.510   0.535   2.162 -0.4133  0.2535  0.3104
 6961SOL     OW27615   3.693   0.003   5.801 -0.4081  0.5250 -0.1778
 6961SOL    HW227616   3.782  -0.012   5.767 -0.3572  0.3404  0.0383
 6961SOL    HW327617   3.649   0.049   5.730 -1.1349 -2.2053 -1.6248
 6961SOL    MW427618   3.699   0.007   5.787  0.0410 -0.3782 -0.1072
 6962SOL     OW27619   1.414   2.459   1.036  0.4447 -0.8595 -0.3905
 6962SOL    HW227620   1.440   2.414   1.117  0.4166 -1.3126 -0.6281
 6962SOL    HW327621   1.325   2.488   1.052 -0.1559 -2.3462 -0.8180
 6962SOL    MW427622   1.406   2.457   1.049 -0.2122 -0.5238 -0.0459
 6963SOL     OW27623   5.664   4.207   0.902  0.5194  0.1367  0.1335
 6963SOL    HW227624   5.694   4.122   0.936  3.2639  0.4474 -1.2456
 6963SOL    HW327625   5.660   4.263   0.979 -1.0874 -1.1114  1.0298
 6963SOL    MW427626   5.667   4.203   0.917 -0.4135 -0.6442 -0.1480
 6964SOL     OW27627   3.851   0.888   4.883  0.1646  0.0187 -0.3319
 6964SOL    HW227628   3.825   0.796   4.877 -0.9782  0.3942 -1.6092
 6964SOL    HW327629   3.814   0.918   4.966  0.8067 -0.7392  0.2400
 6964SOL    MW427630   3.843   0.880   4.893  0.3255 -0.2930 -0.5258
 6965SOL     OW27631   2.028   5.265   5.820 -0.6086 -0.2476 -0.0312
 6965SOL    HW227632   2.110   5.228   5.853 -0.1474 -0.0594 -0.9343
 6965SOL    HW327633   2.003   5.329   5.886 -0.4696 -0.8918  0.6641
 6965SOL    MW427634   2.036   5.269   5.833  0.6467  0.3830 -0.2370
 6966SOL     OW27635   3.721   3.794   5.388 -0.2666  0.0600 -0.2822
 6966SOL    HW227636   3.643   3.781   5.335 -1.5646 -1.3948  1.8185
 6966SOL    HW327637   3.696   3.861   5.452  0.6565  0.5088 -0.3681
 6966SOL    MW427638   3.708   3.801   5.390  0.5446 -0.1992  0.7939
 6967SOL     OW27639   5.140   3.555   3.810 -0.6615  0.0346  0.5308
 6967SOL    HW227640   5.196   3.502   3.866 -1.2026  0.4759  1.5365
 6967SOL    HW327641   5.058   3.506   3.804 -0.0373 -0.8667 -1.3684
 6967SOL    MW427642   5.137   3.542   3.817 -0.2424 -0.3225 -0.5793
 6968SOL     OW27643   4.892   4.873   1.584  0.1599  0.1440  0.5403
 6968SOL    HW227644   4.881   4.819   1.505 -2.6406  1.2409  0.0463
 6968SOL    HW327645   4.944   4.947   1.555 -1.8640  1.1739 -0.7531
 6968SOL    MW427646   4.897   4.875   1.569  0.3290 -0.1346 -0.5249
 6969SOL     OW27647   3.531   4.582   2.558 -0.2686  0.5088  0.1290
 6969SOL    HW227648   3.509   4.604   2.467  0.8260  1.2303  0.0320
 6969SOL    HW327649   3.455   4.532   2.589 -0.9599  0.8510 -0.9609
 6969SOL    MW427650   3.518   4.578   2.550  0.4890 -0.5511 -0.1571
 6970SOL     OW27651   0.823   0.509   2.309  0.3816 -0.2744 -0.0103
 6970SOL    HW227652   0.741   0.555   2.292  0.3165  0.4822  1.9944
 6970SOL    HW327653   0.889   0.558   2.259 -0.0525  0.6096  0.2572
 6970SOL    MW427654   0.821   0.522   2.300 -0.4666  0.2382  0.4340
 6971SOL     OW27655   0.343   2.472   6.411 -0.1694 -0.3171 -0.5177
 6971SOL    HW227656   0.328   2.380   6.433 -1.8815  0.0184 -0.0782
 6971SOL    HW327657   0.408   2.502   6.474  0.9266 -1.3751 -1.1005
 6971SOL    MW427658   0.349   2.464   6.422  0.3500 -0.3157  0.0039
 6972SOL     OW27659   4.224   1.315   2.354  0.0477 -0.3508 -0.2435
 6972SOL    HW227660   4.251   1.253   2.286  1.2882  0.1849 -0.2477
 6972SOL    HW327661   4.301   1.326   2.409 -0.3349  0.7571  0.0906
 6972SOL    MW427662   4.238   1.308   2.352 -0.3195 -0.5499 -0.2356
 6973SOL     OW27663   6.337   1.340   4.755  0.2734 -0.1215  0.2976
 6973SOL    HW227664   6.242   1.350   4.744  0.2666 -1.3734 -1.1320
 6973SOL    HW327665   6.346   1.300   4.842 -0.6787 -1.6673 -0.2642
 6973SOL    MW427666   6.326   1.336   4.765 -0.0466  0.3369 -0.7762
 6974SOL     OW27667   1.115   1.497   3.867 -0.4435 -0.2283  0.0459
 6974SOL    HW227668   1.020   1.490   3.855 -0.3603 -1.3325 -0.0323
 6974SOL    HW327669   1.127   1.496   3.962 -0.4487 -1.2093  0.0493
 6974SOL    MW427670   1.104   1.496   3.878 -0.1476  0.3780 -0.1022
 6975SOL     OW27671   1.030   1.898   4.048  0.7877  0.4267 -0.1829
 6975SOL    HW227672   0.960   1.952   4.010 -1.3183 -2.2043 -0.3449
 6975SOL    HW327673   1.065   1.848   3.975  1.5770  0.3874  0.2084
 6975SOL    MW427674   1.025   1.898   4.034  0.1692 -0.6529  0.2029
 6976SOL     OW27675   4.160   5.534   0.220  0.2012  0.2104 -1.1638
 6976SOL    HW227676   4.181   5.450   0.260  0.4424  0.4256 -0.8292
 6976SOL    HW327677   4.068   5.549   0.242  0.8798  1.3563  1.2656
 6976SOL    MW427678   4.150   5.525   0.228  0.0035  0.1788  0.4842
 6977SOL     OW27679   3.219   2.093   0.770 -0.6746  0.0244 -0.1523
 6977SOL    HW227680   3.304   2.082   0.726 -0.9726  0.5379 -0.8852
 6977SOL    HW327681   3.227   2.044   0.851 -0.4557 -1.8901 -1.2650
 6977SOL    MW427682   3.231   2.085   0.775 -0.1609  0.0355  0.0094
 6978SOL     OW27683   6.029   3.388   5.132 -0.1105  0.2923  0.0169
 6978SOL    HW227684   5.988   3.461   5.178 -1.0503 -0.0845 -0.1889
 6978SOL    HW327685   6.116   3.380   5.171 -0.5640  0.5366  1.1098
 6978SOL    MW427686   6.035   3.397   5.143 -0.1312 -0.3901  0.7039
 6979SOL     OW27687   5.353   3.911   2.561 -0.0972 -0.0802 -0.3476
 6979SOL    HW227688   5.391   3.852   2.496 -0.8580 -1.9091  0.8023
 6979SOL    HW327689   5.428   3.941   2.612  0.0819 -2.4316  0.9123
 6979SOL    MW427690   5.368   3.907   2.559  0.3957  0.0847 -0.2133
 6980SOL     OW27691   1.402   0.735   5.145 -0.0097 -0.4523  0.2697
 6980SOL    HW227692   1.367   0.819   5.115  1.1709  0.3174  0.9396
 6980SOL    HW327693   1.497   0.750   5.151  0.0957 -1.4783  1.4746
 6980SOL    MW427694   1.410   0.748   5.142 -0.3461  0.0551  0.4136
 6981SOL     OW27695   0.420   5.300   4.919  0.3130  0.4950  0.4804
 6981SOL    HW227696   0.440   5.261   4.835  1.0258 -0.5676  1.1263
 6981SOL    HW327697   0.502   5.337   4.950  0.7338 -1.4245  1.8649
 6981SOL    MW427698   0.433   5.300   4.912 -0.1139  0.3393 -0.6054
 6982SOL     OW27699   4.149   3.444   4.615 -0.8963  0.3176  0.6662
 6982SOL    HW227700   4.125   3.498   4.540  0.7017  1.4092  0.8973
 6982SOL    HW327701   4.142   3.354   4.583 -1.5886  0.7081 -0.3491
 6982SOL    MW427702   4.145   3.439   4.601 -0.3308  0.1859  0.0588
 6983SOL     OW27703   2.343   3.022   5.240  0.1358  0.3937 -0.2666
 6983SOL    HW227704   2.416   2.961   5.228  0.9722  1.3262 -0.0605
 6983SOL    HW327705   2.347   3.081   5.164 -0.0383  0.8173  0.0457
 6983SOL    MW427706   2.353   3.022   5.228  0.2958  0.1936  0.0209
 6984SOL     OW27707   1.547   0.410   3.075 -0.3347  0.0508 -0.6122
 6984SOL    HW227708   1.605   0.353   3.125  0.5332  2.7730  1.7524
 6984SOL    HW327709   1.600   0.488   3.055 -2.2972  1.3863 -0.9374
 6984SOL    MW427710   1.562   0.413   3.079 -0.5488 -0.3874 -0.5012
 6985SOL     OW27711   4.153   2.675   3.418 -0.3962 -0.1833  0.2859
 6985SOL    HW227712   4.083   2.609   3.427 -1.6428  1.3456  3.0151
 6985SOL    HW327713   4.229   2.635   3.461 -0.4700 -0.6800 -0.0309
 6985SOL    MW427714   4.154   2.661   3.425  0.8523  0.5740  0.1756
 6986SOL     OW27715   1.606   0.971   0.849 -0.7855 -0.4825  0.0564
 6986SOL    HW227716   1.553   0.907   0.802 -1.3944  1.1218 -1.5655
 6986SOL    HW327717   1.696   0.941   0.837 -1.1342 -1.8010  0.5880
 6986SOL    MW427718   1.611   0.959   0.841  0.3463 -0.1521  0.2837
 6987SOL     OW27719   0.334   1.033   3.522 -0.0334  0.0314 -0.1171
 6987SOL    HW227720   0.296   1.040   3.435  1.5593 -0.2155 -0.8740
 6987SOL    HW327721   0.425   1.059   3.511  0.9715 -2.6802  0.8661
 6987SOL    MW427722   0.341   1.037   3.509 -0.4045  0.4234 -0.3603
 6988SOL     OW27723   5.266   5.933   1.140  0.2136 -0.2892 -0.3365
 6988SOL    HW227724   5.347   5.905   1.182 -0.4292 -1.6587  0.0498
 6988SOL    HW327725   5.216   5.975   1.210  0.5287  0.4622 -0.5506
 6988SOL    MW427726   5.270   5.935   1.154  0.0842 -0.3429  0.3789
 6989SOL     OW27727   1.991   3.052   2.727  0.0864 -0.1781 -0.8306
 6989SOL    HW227728   2.051   3.108   2.777 -1.2158  1.0060 -0.5226
 6989SOL    HW327729   2.013   2.963   2.755 -0.5789  0.4178  1.9371
 6989SOL    MW427730   2.001   3.047   2.737  0.0957  0.3029 -0.0422
 6990SOL     OW27731   5.050   0.569   2.395  0.0901 -0.4194 -0.3646
 6990SOL    HW227732   5.126   0.555   2.337  1.4747  0.3060  1.1864
 6990SOL    HW327733   4.976   0.531   2.347  1.1540  0.1501 -2.5925
 6990SOL    MW427734   5.051   0.562   2.381 -0.6209  0.5210  0.1416
 6991SOL     OW27735   0.403   3.061   4.486 -0.0078  0.1469 -0.4838
 6991SOL    HW227736   0.395   3.090   4.396  1.7242 -2.6584 -1.6701
 6991SOL    HW327737   0.490   3.089   4.514  0.5978 -1.3995 -0.7196
 6991SOL    MW427738   0.414   3.068   4.478 -0.5011 -0.0228  0.5763
 6992SOL     OW27739   3.071   2.209   0.050 -0.6138  0.2337 -0.4907
 6992SOL    HW227740   3.083   2.158  -0.031  0.5366 -0.1776 -0.0787
 6992SOL    HW327741   3.151   2.192   0.100 -1.5432  0.0687  0.9618
 6992SOL    MW427742   3.083   2.200   0.046  0.5692  0.0282  0.1304
 6993SOL     OW27743   3.972   1.434   3.782  0.3609  0.0130 -0.3590
 6993SOL    HW227744   4.000   1.365   3.722 -0.9395  1.7601 -3.1447
 6993SOL    HW327745   3.877   1.425   3.786  0.3385  0.5284  0.7694
 6993SOL    MW427746   3.963   1.424   3.775 -0.1317  0.1516 -0.1232
 6994SOL     OW27747   4.002   1.861   1.328 -0.3430 -0.6100  0.1952
 6994SOL    HW227748   3.972   1.873   1.418 -2.3434 -2.0076 -0.2155
 6994SOL    HW327749   3.925   1.879   1.274  0.8619  0.4045 -1.2844
 6994SOL    MW427750   3.988   1.865   1.332 -0.2710  0.6244 -0.5164
 6995SOL     OW27751   0.748   4.705   1.838  0.1544  0.2503 -0.3298
 6995SOL    HW227752   0.766   4.708   1.932 -2.1163 -0.7648  0.1947
 6995SOL    HW327753   0.653   4.712   1.831  0.1949 -0.5794 -2.5029
 6995SOL    MW427754   0.738   4.706   1.849  0.2659 -0.0691  0.0603
 6996SOL     OW27755   1.803   6.171   3.433 -0.0292 -0.6514  0.2387
 6996SOL    HW227756   1.719   6.159   3.388  0.3872 -2.2670 -0.1390
 6996SOL    HW327757   1.784   6.152   3.525 -0.2586 -0.1560  0.2962
 6996SOL    MW427758   1.789   6.167   3.439  0.5876 -0.4663  0.3637
 6997SOL     OW27759   6.301   3.643   2.437 -0.1994 -0.1508 -0.1409
 6997SOL    HW227760   6.221   3.659   2.387 -0.9516 -1.9102  0.4363
 6997SOL    HW327761   6.370   3.639   2.370 -0.0959  3.5503 -0.5021
 6997SOL    MW427762   6.300   3.645   2.421 -0.0331  0.2186 -0.5530
 6998SOL     OW27763   1.375   4.404   2.905  0.3104  0.1357 -0.3987
 6998SOL    HW227764   1.325   4.421   2.824 -0.4005 -1.4538 -0.3356
 6998SOL    HW327765   1.441   4.341   2.879 -0.0755 -0.5742  0.2972
 6998SOL    MW427766   1.377   4.398   2.891 -0.0773  0.1553 -0.1517
 6999SOL     OW27767   1.412   1.467   4.164 -0.3103  0.1978 -0.0899
 6999SOL    HW227768   1.382   1.558   4.169  0.1011  0.3077  0.3802
 6999SOL    HW327769   1.364   1.422   4.233  0.4813  0.3439  0.5685
 6999SOL    MW427770   1.401   1.473   4.174 -0.2419 -0.3813 -0.7906
 7000SOL     OW27771   4.732   1.901   3.829 -0.3999  0.1200 -0.7273
 7000SOL    HW227772   4.807   1.846   3.851 -0.4333  0.7926  1.2561
 7000SOL    HW327773   4.725   1.896   3.734  1.3230 -1.0249 -0.8249
 7000SOL    MW427774   4.741   1.893   3.820 -0.1943 -0.6297 -0.2398
 7001SOL     OW27775   2.663   4.940   1.240  0.5404  0.4925 -0.4917
 7001SOL    HW227776   2.659   5.031   1.269  0.5130  0.3378  0.0175
 7001SOL    HW327777   2.755   4.924   1.222  0.6323  0.4669 -0.0329
 7001SOL    MW427778   2.674   4.950   1.242 -0.2495 -0.8334 -0.3060
 7002SOL     OW27779   0.980   1.406   4.568 -0.5923 -0.5771  0.0541
 7002SOL    HW227780   0.915   1.358   4.517  0.2228 -0.2076 -1.3721
 7002SOL    HW327781   1.051   1.425   4.507 -0.1173  0.9542  1.0028
 7002SOL    MW427782   0.981   1.402   4.554  0.1190  0.4710  0.8002
 7003SOL     OW27783   1.935   5.563   2.265  0.3281 -0.1264  0.0382
 7003SOL    HW227784   1.927   5.482   2.315  1.1827  0.1604  0.6495
 7003SOL    HW327785   2.029   5.579   2.260  0.1761  0.6626 -0.3492
 7003SOL    MW427786   1.946   5.554   2.271 -0.7061 -0.0108 -0.0006
 7004SOL     OW27787   4.349   4.511   4.533  0.2753  0.1226  0.3879
 7004SOL    HW227788   4.333   4.467   4.617  0.0680  0.6170  0.6125
 7004SOL    HW327789   4.424   4.568   4.550  0.0489  0.4475  0.3322
 7004SOL    MW427790   4.357   4.513   4.547  0.3790  0.8780 -0.0840
 7005SOL     OW27791   2.941   3.485   1.217 -0.0510 -0.1548 -0.2467
 7005SOL    HW227792   3.014   3.426   1.237  0.1662 -0.3715 -1.5924
 7005SOL    HW327793   2.866   3.427   1.207  0.3152 -0.3633 -2.3650
 7005SOL    MW427794   2.941   3.470   1.218  0.0015  0.4138  0.3453
 7006SOL     OW27795   0.757   3.637   2.210 -0.3999  0.0618 -0.1130
 7006SOL    HW227796   0.696   3.569   2.238  0.3404  0.1128  1.8416
 7006SOL    HW327797   0.701   3.710   2.184 -1.1823 -0.9288 -1.3404
 7006SOL    MW427798   0.742   3.638   2.211 -0.1324  0.1636  0.0094
 7007SOL     OW27799   4.393   1.535   5.122  0.3725  0.0960 -0.2569
 7007SOL    HW227800   4.476   1.557   5.079  0.0975  3.5470  0.6606
 7007SOL    HW327801   4.329   1.533   5.051  0.9906 -1.2742 -0.8018
 7007SOL    MW427802   4.395   1.538   5.107  0.3219  0.2874 -1.5040
 7008SOL     OW27803   6.094   1.252   3.665  0.1691 -0.0712 -0.0890
 7008SOL    HW227804   5.999   1.254   3.659  0.1797  1.3682 -0.0623
 7008SOL    HW327805   6.122   1.223   3.578 -0.2931 -1.1020  0.0924
 7008SOL    MW427806   6.085   1.249   3.652 -0.1700  0.1527 -0.3344
 7009SOL     OW27807   3.088   1.720   3.646 -0.9653 -0.0108  0.6294
 7009SOL    HW227808   3.151   1.668   3.596 -1.4737 -1.0026  1.0044
 7009SOL    HW327809   3.141   1.783   3.694 -0.4305  0.6807 -0.8186
 7009SOL    MW427810   3.103   1.722   3.645  0.0758 -0.3744  0.7981
 7010SOL     OW27811   1.611   0.523   1.545 -0.1228 -0.1527 -0.0500
 7010SOL    HW227812   1.698   0.561   1.552 -0.1680 -0.0744  0.0931
 7010SOL    HW327813   1.551   0.597   1.555 -0.2015  0.0504 -1.7884
 7010SOL    MW427814   1.615   0.537   1.547  0.4121 -0.7291  0.2502
 7011SOL     OW27815   4.171   5.551   2.336  0.0794 -0.4056  0.3117
 7011SOL    HW227816   4.174   5.634   2.384 -0.1207 -1.7010  2.7673
 7011SOL    HW327817   4.261   5.535   2.310  0.5226 -0.4081  1.7482
 7011SOL    MW427818   4.183   5.560   2.339  1.0150 -0.3191 -0.4805
 7012SOL     OW27819   1.914   0.535   5.288  0.2103 -0.2509 -0.3579
 7012SOL    HW227820   1.900   0.567   5.198  1.3900  1.7256  0.0963
 7012SOL    HW327821   1.954   0.449   5.276  2.2143  0.8006 -1.8188
 7012SOL    MW427822   1.917   0.528   5.274  0.0663  0.1219 -0.1909
 7013SOL     OW27823   5.141   0.442   3.366 -0.1191 -0.0715 -0.1784
 7013SOL    HW227824   5.158   0.534   3.345  0.4442 -0.5842 -2.1655
 7013SOL    HW327825   5.200   0.422   3.438 -0.4313  1.1830  0.4498
 7013SOL    MW427826   5.151   0.452   3.372 -0.0633 -0.2987  0.6176
 7014SOL     OW27827   0.093   4.669   0.475  0.2736  0.4694  0.1230
 7014SOL    HW227828   0.039   4.591   0.480 -0.2765  0.8865  0.8766
 7014SOL    HW327829   0.099   4.689   0.381 -1.0489  0.5307  0.0422
 7014SOL    MW427830   0.087   4.662   0.463  0.7284  0.0244 -0.4130
 7015SOL     OW27831   3.894   3.709   1.622 -0.1625 -0.2874 -0.0377
 7015SOL    HW227832   3.861   3.705   1.533  0.4889  1.1122 -0.3573
 7015SOL    HW327833   3.837   3.649   1.671 -2.0085  0.6569 -0.9276
 7015SOL    MW427834   3.882   3.700   1.617  0.4173  0.7558 -0.1656
 7016SOL     OW27835   0.505   4.306   3.208 -0.4086 -0.0919 -0.4141
 7016SOL    HW227836   0.594   4.276   3.229 -0.1826  1.5158  1.1783
 7016SOL    HW327837   0.471   4.240   3.147  1.3913 -1.4494 -0.0345
 7016SOL    MW427838   0.512   4.293   3.202 -0.2791 -0.2100  0.5374
 7017SOL     OW27839   4.106   6.071   2.721  0.0072  0.1699 -0.4224
 7017SOL    HW227840   4.168   5.999   2.731 -0.3261 -0.0585  0.0270
 7017SOL    HW327841   4.100   6.111   2.807 -0.5218  0.1430 -0.4405
 7017SOL    MW427842   4.113   6.067   2.733  0.0959 -0.4473  0.1187
 7018SOL     OW27843   2.964   5.902   3.742 -0.2950  0.0012  0.1019
 7018SOL    HW227844   2.943   5.978   3.688 -0.9940 -1.4125 -1.7174
 7018SOL    HW327845   3.039   5.861   3.699 -0.1376 -0.5418  0.8621
 7018SOL    MW427846   2.971   5.906   3.729  0.4199  0.3514  0.6178
 7019SOL     OW27847   2.745   5.076   5.740 -0.0812  0.4473  0.8471
 7019SOL    HW227848   2.697   5.078   5.657  1.6221  1.0426 -0.1852
 7019SOL    HW327849   2.738   5.165   5.774 -0.1587  0.3940  0.9707
 7019SOL    MW427850   2.738   5.088   5.733  0.7858 -0.1680  0.4857
 7020SOL     OW27851   2.096   5.095   1.043  0.5184  0.4176 -0.3066
 7020SOL    HW227852   2.144   5.145   1.108 -0.4476 -0.5123  1.1850
 7020SOL    HW327853   2.121   5.133   0.959  1.9214  1.5449  0.5922
 7020SOL    MW427854   2.105   5.106   1.040  0.2450 -0.8052 -0.6139
 7021SOL     OW27855   3.923   2.101   4.632 -0.2139 -0.0276 -0.2723
 7021SOL    HW227856   3.940   2.072   4.542  0.8804  0.6737 -0.3125
 7021SOL    HW327857   3.932   2.022   4.684  3.8908  0.2390 -0.2310
 7021SOL    MW427858   3.927   2.087   4.627  0.4144  0.3539 -0.2754
 7022SOL     OW27859   5.069   4.992   2.073 -0.0119  0.6618 -0.1973
 7022SOL    HW227860   5.143   5.049   2.093  0.5220 -0.9588  3.1729
 7022SOL    HW327861   5.107   4.919   2.024 -0.3505  2.0760 -2.7303
 7022SOL    MW427862   5.084   4.990   2.069 -0.0233 -0.3486  0.3468
 7023SOL     OW27863   6.204   0.519   2.882 -0.8167 -0.2153 -0.4333
 7023SOL    HW227864   6.125   0.468   2.899 -1.2164  0.9228  1.3148
 7023SOL    HW327865   6.227   0.557   2.966  0.6678  0.8106 -1.2533
 7023SOL    MW427866   6.197   0.517   2.895 -0.2537 -0.9163  0.3922
 7024SOL     OW27867   5.271   3.083   5.200 -0.1931  0.2007  0.4696
 7024SOL    HW227868   5.215   3.059   5.273 -0.8781  0.2943 -0.0139
 7024SOL    HW327869   5.246   3.024   5.129  1.8380 -1.2401  0.8676
 7024SOL    MW427870   5.261   3.072   5.200  0.0701 -0.6259  0.1239
 7025SOL     OW27871   1.311   2.380   0.347  0.6677 -0.1261  0.2180
 7025SOL    HW227872   1.281   2.355   0.259  0.4275 -0.6970  0.4555
 7025SOL    HW327873   1.238   2.428   0.385  1.1005  0.8844 -0.2107
 7025SOL    MW427874   1.297   2.383   0.340  0.4341  0.6671 -0.0698
 7026SOL     OW27875   0.414   5.906   5.669  0.7457 -0.5236  0.0000
 7026SOL    HW227876   0.364   5.824   5.674 -1.4857  0.8298  1.0089
 7026SOL    HW327877   0.497   5.885   5.711 -0.1935 -2.0042  1.2202
 7026SOL    MW427878   0.418   5.892   5.675  0.5600 -0.1091  0.0950
 7027SOL     OW27879   5.589   4.744   4.445 -0.5188 -0.7081 -0.3403
 7027SOL    HW227880   5.596   4.809   4.376 -2.0677 -1.2395 -1.0691
 7027SOL    HW327881   5.610   4.791   4.526 -1.5036  0.6876 -0.8508
 7027SOL    MW427882   5.592   4.758   4.447  0.3239  0.0838  0.1179
 7028SOL     OW27883   5.482   4.325   5.129  0.1287  0.2130 -0.4097
 7028SOL    HW227884   5.499   4.411   5.168 -1.1741  0.2872  0.0431
 7028SOL    HW327885   5.429   4.344   5.052  0.2962 -0.1498 -0.6135
 7028SOL    MW427886   5.478   4.339   5.124 -0.5274 -0.7707  0.2383
 7029SOL     OW27887   2.407   3.882   3.265 -0.0617  0.1537 -0.2546
 7029SOL    HW227888   2.351   3.938   3.212  0.7675  0.4455 -0.8388
 7029SOL    HW327889   2.346   3.830   3.317 -0.9281 -0.5585 -1.8991
 7029SOL    MW427890   2.392   3.882   3.265 -0.1205  0.3274  0.4874
 7030SOL     OW27891   3.249   2.566   3.379 -0.2122  0.0299 -0.0362
 7030SOL    HW227892   3.203   2.483   3.376  1.0606 -0.6789 -0.7145
 7030SOL    HW327893   3.224   2.611   3.299  0.0839 -0.2578 -0.2940
 7030SOL    MW427894   3.240   2.561   3.368  0.2209 -0.2343 -0.2871
 7031SOL     OW27895   1.587   2.539   5.657 -0.0261  0.1812 -0.0861
 7031SOL    HW227896   1.516   2.584   5.703 -1.0340 -0.2605 -1.1619
 7031SOL    HW327897   1.629   2.608   5.606  0.5981  0.5199  0.8499
 7031SOL    MW427898   1.583   2.554   5.656 -0.2846 -0.0576  0.8340
 7032SOL     OW27899   4.667   0.717   0.856  0.0584 -0.1435 -0.2382
 7032SOL    HW227900   4.636   0.805   0.878  2.0566 -0.0484  2.6927
 7032SOL    HW327901   4.650   0.665   0.935  0.5528 -1.9504 -1.2626
 7032SOL    MW427902   4.661   0.722   0.869 -0.0466  0.0983 -0.0901
 7033SOL     OW27903   2.451   6.182   6.359  0.0278  0.4894 -0.4856
 7033SOL    HW227904   2.454   6.186   6.263  0.3775  1.6112 -0.4361
 7033SOL    HW327905   2.531   6.226   6.388  1.6716 -2.6808  0.3111
 7033SOL    MW427906   2.462   6.188   6.350 -0.1792  0.0074 -0.2976
 7034SOL     OW27907   2.090   5.331   4.697  0.0995 -0.0670 -0.0020
 7034SOL    HW227908   2.079   5.355   4.789  1.9913 -0.1631  0.2877
 7034SOL    HW327909   2.019   5.375   4.652  0.8455  2.4490  1.1165
 7034SOL    MW427910   2.079   5.340   4.703  0.0318  0.4878 -0.0433
 7035SOL     OW27911   1.493   3.779   4.488  0.0422 -0.0752  0.2699
 7035SOL    HW227912   1.517   3.872   4.487  1.1443 -0.2255  2.6845
 7035SOL    HW327913   1.548   3.740   4.421 -0.4800  1.0000 -0.8275
 7035SOL    MW427914   1.504   3.786   4.479  0.1320  0.0613 -0.7254
 7036SOL     OW27915   0.216   6.361   1.654  0.1568  0.0782 -0.2006
 7036SOL    HW227916   0.253   6.390   1.737 -1.2022 -0.1952  0.5354
 7036SOL    HW327917   0.268   6.406   1.587  0.8357  0.8342  0.8040
 7036SOL    MW427918   0.228   6.371   1.656  0.9088 -0.7809 -0.4307
 7037SOL     OW27919   1.398   0.498   5.542 -0.0409  0.0174  0.0096
 7037SOL    HW227920   1.347   0.484   5.462 -1.0386 -2.9485  1.0201
 7037SOL    HW327921   1.473   0.440   5.532 -1.2065 -1.9879  1.9597
 7037SOL    MW427922   1.401   0.488   5.530  0.1034  0.8712  0.2191
 7038SOL     OW27923   5.246   4.241   3.525 -0.1334  0.4061 -0.1722
 7038SOL    HW227924   5.233   4.201   3.611 -0.6766 -0.2002 -0.5280
 7038SOL    HW327925   5.215   4.175   3.463  0.5611  0.7089 -0.8543
 7038SOL    MW427926   5.240   4.227   3.528 -0.0520 -0.0385  0.0610
 7039SOL     OW27927   2.194   4.694   1.791 -0.2825 -0.1020 -0.0143
 7039SOL    HW227928   2.131   4.656   1.730  1.1768 -1.9519 -0.4782
 7039SOL    HW327929   2.214   4.622   1.851  1.2390  0.4779  0.2121
 7039SOL    MW427930   2.189   4.679   1.791  0.1621 -0.2451 -0.8714
 7040SOL     OW27931   4.637   4.182   3.785  0.2196  0.2067  0.4568
 7040SOL    HW227932   4.555   4.225   3.810 -0.5197 -0.1775 -1.2046
 7040SOL    HW327933   4.615   4.090   3.776  1.1264 -0.0969  1.0997
 7040SOL    MW427934   4.623   4.176   3.787  0.2604 -0.3410  0.1240
 7041SOL     OW27935   5.021   3.574   4.381  0.0762  0.3387  0.2258
 7041SOL    HW227936   5.000   3.596   4.291 -1.6543  0.1080  0.5185
 7041SOL    HW327937   5.104   3.617   4.399 -0.7755  2.4763 -0.7019
 7041SOL    MW427938   5.029   3.582   4.372 -0.3987 -0.1687  0.1079
 7042SOL     OW27939   2.196   5.725   5.724 -0.4067  0.5180 -0.1012
 7042SOL    HW227940   2.189   5.702   5.817  0.3900 -1.2438 -0.4380
 7042SOL    HW327941   2.214   5.819   5.724  1.0249  0.2872  1.5917
 7042SOL    MW427942   2.197   5.734   5.736 -0.2685 -0.6924 -0.2602
 7043SOL     OW27943   0.225   5.544   0.852 -0.0474  0.1177 -0.2653
 7043SOL    HW227944   0.239   5.569   0.761  2.0424 -2.1023 -0.6648
 7043SOL    HW327945   0.299   5.581   0.899 -0.1627 -0.2291  0.1991
 7043SOL    MW427946   0.237   5.552   0.846 -0.1388 -0.2598  0.3071
 7044SOL     OW27947   4.608   2.982   2.652 -0.0031  0.2335 -0.0845
 7044SOL    HW227948   4.567   2.931   2.582 -0.3372 -0.8669  0.8780
 7044SOL    HW327949   4.538   3.040   2.684 -0.7490 -1.3196  1.2486
 7044SOL    MW427950   4.593   2.983   2.647  0.0610  0.3979 -0.5990
 7045SOL     OW27951   1.240   3.850   2.249 -0.4781  0.2582  0.0116
 7045SOL    HW227952   1.332   3.874   2.263 -0.3238  0.5116 -1.3044
 7045SOL    HW327953   1.229   3.853   2.154 -1.3573 -1.6092  0.0055
 7045SOL    MW427954   1.251   3.853   2.238  0.3042  0.1645  0.2519
 7046SOL     OW27955   5.430   1.189   6.068 -0.1816 -0.6204 -0.2538
 7046SOL    HW227956   5.422   1.095   6.053  1.0148 -1.0024  1.2112
 7046SOL    HW327957   5.480   1.221   5.993  0.5127 -1.3995 -0.1470
 7046SOL    MW427958   5.436   1.181   6.057 -0.2235  0.4685 -0.3009
 7047SOL     OW27959   5.419   1.320   0.352 -0.0006 -0.4467  0.7519
 7047SOL    HW227960   5.324   1.317   0.344 -0.0099  1.2419 -0.2740
 7047SOL    HW327961   5.450   1.254   0.290 -0.4877 -0.3833  0.4340
 7047SOL    MW427962   5.411   1.311   0.342  0.2120  0.5888  0.7201
 7048SOL     OW27963   6.357   0.951   4.457  0.4888 -0.7016  0.0292
 7048SOL    HW227964   6.296   0.994   4.517  0.3165  1.3260 -1.4894
 7048SOL    HW327965   6.426   1.016   4.442  1.7362 -2.0268 -0.2127
 7048SOL    MW427966   6.358   0.966   4.463  0.0149  0.5635 -0.6669
 7049SOL     OW27967   4.668   5.396   0.997  0.3468 -0.3981  0.4572
 7049SOL    HW227968   4.702   5.412   1.084  3.1642 -0.2546 -0.5737
 7049SOL    HW327969   4.642   5.483   0.965  1.8038 -0.0298  0.2188
 7049SOL    MW427970   4.669   5.410   1.004  0.0152 -0.6414 -0.3497
 7050SOL     OW27971   1.149   4.816   0.523  0.4431  0.5825 -0.0616
 7050SOL    HW227972   1.156   4.844   0.432  0.1229  0.9237  0.0156
 7050SOL    HW327973   1.237   4.787   0.546  0.4745  0.2752 -0.5472
 7050SOL    MW427974   1.161   4.816   0.514 -0.0408 -0.4437 -0.0307
 7051SOL     OW27975   4.646   3.700   2.029 -0.1988 -0.8509  0.7713
 7051SOL    HW227976   4.713   3.691   2.097  0.2869 -1.2555  0.2516
 7051SOL    HW327977   4.607   3.613   2.022  1.2733 -1.4480 -0.9879
 7051SOL    MW427978   4.649   3.687   2.037  0.0218 -0.0654  0.0516
 7052SOL     OW27979   2.665   2.574   6.252 -0.2776 -0.2526 -0.8519
 7052SOL    HW227980   2.702   2.631   6.184 -0.4986  0.5762 -0.2961
 7052SOL    HW327981   2.581   2.546   6.217  0.1427 -0.8168 -1.4287
 7052SOL    MW427982   2.659   2.578   6.238  0.1018  0.0160 -0.1565
 7053SOL     OW27983   0.529   0.181   0.130 -0.2102 -0.1800  0.1879
 7053SOL    HW227984   0.537   0.104   0.073  0.9006  2.1371 -3.0956
 7053SOL    HW327985   0.614   0.187   0.174 -0.7505 -1.4747  1.4749
 7053SOL    MW427986   0.542   0.172   0.128 -0.6805  0.7800 -0.0938
 7054SOL     OW27987   0.401   4.715   2.926 -0.1069 -0.6254 -0.3757
 7054SOL    HW227988   0.368   4.770   2.996 -0.1430 -1.3375  0.1790
 7054SOL    HW327989   0.484   4.756   2.901 -0.5564  0.1744 -0.5806
 7054SOL    MW427990   0.408   4.727   2.932 -0.7892 -0.1134  0.6309
 7055SOL     OW27991   3.333   0.537   0.363 -0.0046 -0.0922 -0.3420
 7055SOL    HW227992   3.412   0.515   0.313  0.7214  0.3000  0.6066
 7055SOL    HW327993   3.270   0.566   0.297  0.2601 -1.4604 -1.2347
 7055SOL    MW427994   3.335   0.538   0.347 -0.1092 -0.7954 -0.3964
 7056SOL     OW27995   1.433   3.188   3.549 -0.8579  0.3657  0.3095
 7056SOL    HW227996   1.453   3.118   3.486 -1.3197 -0.0141  0.5750
 7056SOL    HW327997   1.384   3.253   3.499 -2.0044 -0.3508  0.4681
 7056SOL    MW427998   1.430   3.187   3.534  0.0687 -0.5968 -0.2896
 7057SOL     OW27999   1.520   3.150   2.434 -0.5194 -0.2700 -0.3363
 7057SOL    HW228000   1.482   3.205   2.502 -0.5552 -0.9813  0.2338
 7057SOL    HW328001   1.449   3.092   2.408 -0.1371 -0.8857 -0.0329
 7057SOL    MW428002   1.506   3.149   2.439  0.0524  0.3616  0.1186
 7058SOL     OW28003   5.008   0.548   1.070  0.1723  0.8769 -0.0113
 7058SOL    HW228004   5.077   0.482   1.059 -0.1674  0.0810  2.1502
 7058SOL    HW328005   4.977   0.565   0.981  2.1086  0.1295 -0.8864
 7058SOL    MW428006   5.013   0.542   1.057  0.4496 -0.3779 -0.0426
 7059SOL     OW28007   4.346   1.679   4.126  0.2501  0.2221  0.8119
 7059SOL    HW228008   4.343   1.583   4.132  2.3275  0.0985  0.5754
 7059SOL    HW328009   4.311   1.698   4.039 -0.2573 -0.3102  0.8926
 7059SOL    MW428010   4.341   1.669   4.115 -0.0272  0.2769  0.3728
 7060SOL     OW28011   5.612   1.097   3.606 -0.3286 -0.4353  0.0178
 7060SOL    HW228012   5.546   1.056   3.662 -1.3643  1.2130  0.0761
 7060SOL    HW328013   5.666   1.024   3.575 -1.7296 -1.7570  0.5517
 7060SOL    MW428014   5.610   1.082   3.609  0.1623  0.1377  0.2021
 7061SOL     OW28015   2.296   0.819   2.641 -0.6449  0.6197  0.2139
 7061SOL    HW228016   2.288   0.782   2.553  1.2040  0.6243  0.0042
 7061SOL    HW328017   2.284   0.744   2.700  1.9764 -0.2225 -0.1832
 7061SOL    MW428018   2.294   0.804   2.637  0.2342 -0.1988  0.5461
 7062SOL     OW28019   5.757   0.626   3.821  0.4626  0.4229 -0.1275
 7062SOL    HW228020   5.745   0.580   3.738  3.0200 -0.5444 -0.0498
 7062SOL    HW328021   5.684   0.597   3.876  0.1585 -0.9186 -1.1974
 7062SOL    MW428022   5.746   0.617   3.817 -0.1658  0.6695 -0.1131
 7063SOL     OW28023   3.035   0.535   4.946 -0.0135  0.1877  0.2887
 7063SOL    HW228024   2.964   0.560   5.005  1.3579 -0.6596  2.4291
 7063SOL    HW328025   3.065   0.618   4.908 -0.8077  0.8022  0.9711
 7063SOL    MW428026   3.030   0.549   4.949  0.0605 -0.3456  0.2695
 7064SOL     OW28027   2.664   3.267   3.612  0.2519  0.2254  0.2383
 7064SOL    HW228028   2.658   3.188   3.665  0.1636  0.4043  0.4969
 7064SOL    HW328029   2.757   3.288   3.610  0.8550 -1.9178 -2.8450
 7064SOL    MW428030   2.676   3.259   3.618 -0.0034  0.0286 -0.3978
 7065SOL     OW28031   5.940   5.404   1.674 -0.1462  0.1656  0.7978
 7065SOL    HW228032   5.918   5.448   1.756 -0.1355  0.4181  0.6648
 7065SOL    HW328033   5.999   5.333   1.701 -0.6614 -0.1602  1.0860
 7065SOL    MW428034   5.945   5.400   1.689 -0.1209  0.0660 -0.4095
 7066SOL     OW28035   6.338   2.582   2.328 -0.2010  0.2137 -0.2821
 7066SOL    HW228036   6.338   2.505   2.386 -0.6521 -0.6896 -1.4569
 7066SOL    HW328037   6.280   2.645   2.371 -0.9962 -0.6713 -0.0462
 7066SOL    MW428038   6.331   2.580   2.342  0.8209  1.1018 -0.0778
 7067SOL     OW28039   1.467   4.017   4.698 -0.3707  0.3821 -0.6528
 7067SOL    HW228040   1.493   4.003   4.789  1.6201 -1.3770 -1.4088
 7067SOL    HW328041   1.379   3.981   4.692 -0.5991  0.6807  0.5983
 7067SOL    MW428042   1.459   4.010   4.709 -0.1657  0.1085 -0.2568
 7068SOL     OW28043   4.012   1.803   3.528 -0.3179 -0.1831 -0.9050
 7068SOL    HW228044   3.931   1.782   3.574  0.1214 -0.7659 -0.3763
 7068SOL    HW328045   4.079   1.750   3.572  0.6768  1.5801 -0.1859
 7068SOL    MW428046   4.010   1.793   3.540  0.2976  0.8767 -0.0580
 7069SOL     OW28047   1.087   3.102   2.509  0.2281 -0.1728 -0.1766
 7069SOL    HW228048   1.108   3.088   2.602  0.9482 -0.9754 -0.4515
 7069SOL    HW328049   1.026   3.032   2.487  3.1236 -2.5414 -1.3105
 7069SOL    MW428050   1.082   3.091   2.519  0.3185 -0.1501  0.2559
 7070SOL     OW28051   0.366   2.323   5.758  0.1052 -0.7696  0.1037
 7070SOL    HW228052   0.420   2.400   5.775 -0.5459 -0.2108 -0.3015
 7070SOL    HW328053   0.428   2.256   5.731  0.7280 -0.5297  0.8967
 7070SOL    MW428054   0.381   2.324   5.757 -0.0199 -0.1967 -0.0963
 7071SOL     OW28055   1.232   5.670   5.956  0.2464  1.0689  0.0683
 7071SOL    HW228056   1.326   5.689   5.951 -0.1306  4.2873  2.2093
 7071SOL    HW328057   1.208   5.643   5.868  3.0024  0.9883 -0.7546
 7071SOL    MW428058   1.241   5.669   5.944 -0.3432 -0.0282 -0.1119
 7072SOL     OW28059   3.250   0.589   2.300  0.2571 -0.5529 -0.1175
 7072SOL    HW228060   3.188   0.591   2.372  0.2269 -0.0751 -0.1475
 7072SOL    HW328061   3.309   0.516   2.320 -0.1924 -0.8834  0.0094
 7072SOL    MW428062   3.250   0.580   2.312  0.7045 -0.3688  0.0039
 7073SOL     OW28063   4.667   5.799   1.806  0.2630  0.8537  0.2990
 7073SOL    HW228064   4.741   5.813   1.746 -0.3675  0.2058 -0.6674
 7073SOL    HW328065   4.603   5.866   1.780 -0.2104  0.2553 -0.0996
 7073SOL    MW428066   4.668   5.810   1.794  0.2848 -0.1093 -0.0879
 7074SOL     OW28067   1.762   5.450   5.856  0.1793  0.4135 -0.2527
 7074SOL    HW228068   1.778   5.518   5.921 -1.5440  0.7850 -0.1644
 7074SOL    HW328069   1.736   5.498   5.777  0.3177 -0.0939 -0.6138
 7074SOL    MW428070   1.760   5.465   5.854 -0.0435 -0.0368 -0.2447
 7075SOL     OW28071   6.313   4.784   1.794 -0.1339  0.2222 -0.1653
 7075SOL    HW228072   6.335   4.846   1.864 -1.5891 -0.1736  0.6616
 7075SOL    HW328073   6.248   4.830   1.742 -0.7673 -0.3737  0.0970
 7075SOL    MW428074   6.307   4.799   1.796  0.1377  0.2531 -1.0139
 7076SOL     OW28075   3.987   4.343   1.738 -0.0183  0.5696  0.7131
 7076SOL    HW228076   4.063   4.402   1.734 -0.6162  1.2796 -1.7016
 7076SOL    HW328077   3.926   4.386   1.797 -0.6060  2.6668 -1.3025
 7076SOL    MW428078   3.989   4.356   1.745  0.3592 -0.4862  0.1324
 7077SOL     OW28079   1.712   3.950   3.250 -0.1612  0.0204 -0.7580
 7077SOL    HW228080   1.717   3.996   3.334  0.1455 -0.4956 -0.4885
 7077SOL    HW328081   1.792   3.977   3.203 -0.5072  0.5876 -1.0377
 7077SOL    MW428082   1.723   3.960   3.255  0.3940  0.7265 -0.0488
 7078SOL     OW28083   5.808   5.671   1.984  0.4653 -0.4188 -0.2288
 7078SOL    HW228084   5.883   5.718   2.020  0.6320 -0.0332 -1.0535
 7078SOL    HW328085   5.769   5.732   1.922 -1.0521 -0.2824  0.8060
 7078SOL    MW428086   5.813   5.685   1.980  0.0483 -0.4097  0.1721
 7079SOL     OW28087   2.504   5.389   3.688 -0.6571 -0.3308  0.1100
 7079SOL    HW228088   2.577   5.357   3.636 -0.0791  4.7322 -2.8756
 7079SOL    HW328089   2.426   5.367   3.637 -0.7636 -1.1460  0.6055
 7079SOL    MW428090   2.503   5.382   3.674 -0.4730 -0.4167 -0.2634
 7080SOL     OW28091   4.985   4.867   1.021  0.0943 -0.7564  0.2991
 7080SOL    HW228092   4.923   4.806   1.060 -0.1490 -0.4701  0.3644
 7080SOL    HW328093   5.071   4.835   1.050  0.0281 -1.5651 -0.3765
 7080SOL    MW428094   4.988   4.855   1.030  0.1607  0.1649  0.0580
 7081SOL     OW28095   1.011   6.358   0.688  0.3554  0.3725 -0.2458
 7081SOL    HW228096   0.952   6.372   0.614  0.8275 -0.0279 -0.7066
 7081SOL    HW328097   0.991   6.269   0.717  0.2167  0.5063  0.0738
 7081SOL    MW428098   1.000   6.348   0.682 -0.0231 -0.5838 -0.1157
 7082SOL     OW28099   2.546   2.582   1.609 -0.4125  0.3493 -0.6803
 7082SOL    HW228100   2.627   2.593   1.558 -0.5423  0.0614 -0.9525
 7082SOL    HW328101   2.544   2.658   1.667 -1.1777  1.6541 -2.3421
 7082SOL    MW428102   2.557   2.593   1.610  0.0625  0.5027  0.5639
 7083SOL     OW28103   3.733   6.308   1.791 -0.1268  0.2897 -0.1978
 7083SOL    HW228104   3.758   6.310   1.883 -0.5429  0.5178 -0.0868
 7083SOL    HW328105   3.660   6.246   1.787  0.2306 -0.1152 -0.4609
 7083SOL    MW428106   3.727   6.300   1.803  0.0934 -0.3935 -0.3648
 7084SOL     OW28107   1.794   1.836   5.227 -0.3284 -0.5044  0.1818
 7084SOL    HW228108   1.805   1.921   5.183  0.4167 -0.5335  0.3006
 7084SOL    HW328109   1.781   1.859   5.319  0.2322 -0.5355  0.2682
 7084SOL    MW428110   1.794   1.851   5.233  0.0154  0.3287 -0.6180
 7085SOL     OW28111   0.828   3.564   4.403  0.1628 -0.0773 -0.4420
 7085SOL    HW228112   0.850   3.514   4.324  0.2733 -0.6174 -0.0742
 7085SOL    HW328113   0.911   3.597   4.435  0.2049 -0.4194 -0.1854
 7085SOL    MW428114   0.842   3.561   4.397 -0.1006  0.2848  0.0761
 7086SOL     OW28115   1.995   1.210   0.678 -0.1106  0.4364 -0.7727
 7086SOL    HW228116   1.980   1.232   0.770  1.0713 -0.6556 -0.2990
 7086SOL    HW328117   1.979   1.116   0.673 -3.0628  0.9053 -2.3391
 7086SOL    MW428118   1.991   1.201   0.690  0.4574  0.1315  0.4352
 7087SOL     OW28119   3.713   2.691   0.674 -0.6750  0.4950 -0.0557
 7087SOL    HW228120   3.694   2.669   0.765 -1.1059  0.8920 -0.0448
 7087SOL    HW328121   3.751   2.611   0.637  1.6986  1.0177  1.0775
 7087SOL    MW428122   3.716   2.678   0.681  0.0588 -0.3422 -0.0149
 7088SOL     OW28123   5.340   5.225   2.564 -0.2116 -0.2109 -0.3270
 7088SOL    HW228124   5.354   5.319   2.553 -0.0436 -0.4068 -2.0595
 7088SOL    HW328125   5.256   5.218   2.610  1.0158  0.8031  2.2753
 7088SOL    MW428126   5.331   5.236   2.568  0.1211  0.4336  0.2796
 7089SOL     OW28127   3.881   5.512   0.248 -0.2519  0.3269  0.2243
 7089SOL    HW228128   3.818   5.565   0.199  1.2234  2.7300  0.7469
 7089SOL    HW328129   3.878   5.547   0.337 -0.3052 -1.5635  1.0247
 7089SOL    MW428130   3.873   5.524   0.254  0.5599 -0.2394  0.7554
 7090SOL     OW28131   2.527   1.295   1.601  0.3522  0.2907  0.0702
 7090SOL    HW228132   2.447   1.244   1.613  0.4868  0.5260  2.6233
 7090SOL    HW328133   2.595   1.229   1.586  0.2153 -0.2177  1.4723
 7090SOL    MW428134   2.526   1.279   1.601  0.2193 -0.1480 -0.0433
 7091SOL     OW28135   4.342   5.605   0.591 -0.1344 -0.6360  0.3085
 7091SOL    HW228136   4.406   5.555   0.642  0.9910  1.5901  1.2000
 7091SOL    HW328137   4.375   5.603   0.502  0.5850 -0.4604  0.5653
 7091SOL    MW428138   4.354   5.598   0.586  0.1625  0.3007  0.3843
 7092SOL     OW28139   2.904   6.138   3.561 -0.0522 -0.4600 -0.1683
 7092SOL    HW228140   2.847   6.121   3.486 -3.3777  0.9871  1.8029
 7092SOL    HW328141   2.956   6.214   3.534 -0.7594 -0.3311 -1.2241
 7092SOL    MW428142   2.904   6.146   3.547 -0.6696 -0.2814 -0.6348
 7093SOL     OW28143   3.204   1.566   0.259 -0.2908 -0.1435  0.1416
 7093SOL    HW228144   3.179   1.631   0.325  0.2707  1.5471 -1.2267
 7093SOL    HW328145   3.227   1.618   0.182  0.1459 -1.9953 -1.0410
 7093SOL    MW428146   3.204   1.582   0.258 -0.4651 -0.3548  0.3492
 7094SOL     OW28147   6.123   2.413   3.557 -0.2648  0.0721  0.2133
 7094SOL    HW228148   6.083   2.360   3.488  0.3790 -0.0939 -0.0351
 7094SOL    HW328149   6.089   2.501   3.543  0.0370  0.0841 -0.4536
 7094SOL    MW428150   6.113   2.417   3.546  0.1442 -0.0948  0.8962
 7095SOL     OW28151   0.525   1.761   1.030 -0.4226  0.0577  0.3649
 7095SOL    HW228152   0.582   1.684   1.039  0.4487  0.1650 -2.8510
 7095SOL    HW328153   0.576   1.833   1.066 -0.1530 -0.4637  1.0420
 7095SOL    MW428154   0.540   1.760   1.036 -0.2383  0.1829 -0.2596
 7096SOL     OW28155   4.760   6.096   4.210 -0.2014  0.1229  0.2507
 7096SOL    HW228156   4.682   6.040   4.216  0.7630 -1.4889 -1.0493
 7096SOL    HW328157   4.808   6.078   4.290 -0.3081 -0.2930  0.2264
 7096SOL    MW428158   4.756   6.086   4.221  0.4852 -0.3057  0.2692
 7097SOL     OW28159   4.835   2.236   3.286  0.7716  0.1422  0.4191
 7097SOL    HW228160   4.899   2.164   3.279 -0.6720 -1.1148 -0.4326
 7097SOL    HW328161   4.826   2.269   3.197 -1.9336 -1.7407 -0.1475
 7097SOL    MW428162   4.842   2.231   3.274  0.2740 -0.4212  0.0565
 7098SOL     OW28163   5.823   1.999   1.801  0.4021 -0.3300  0.0517
 7098SOL    HW228164   5.856   2.031   1.718 -0.2643  1.0742  0.2946
 7098SOL    HW328165   5.739   1.959   1.780  0.4414 -0.3806 -0.0103
 7098SOL    MW428166   5.817   1.998   1.788 -0.3767 -0.0944 -0.2114
 7099SOL     OW28167   6.071   1.669   3.381  0.2626  0.3575  0.3805
 7099SOL    HW228168   6.079   1.621   3.463  1.6140  0.0398  0.0757
 7099SOL    HW328169   6.160   1.698   3.361 -0.0992  0.6767 -0.8266
 7099SOL    MW428170   6.084   1.666   3.389  0.1813 -0.3844 -0.0197
 7100SOL     OW28171   3.997   2.028   5.738  0.2456 -0.0385  0.4956
 7100SOL    HW228172   3.922   2.085   5.723  0.3214  0.5020  2.0328
 7100SOL    HW328173   3.958   1.943   5.759  0.1344 -0.7393 -2.1787
 7100SOL    MW428174   3.982   2.024   5.739  0.7222  0.0367 -0.0635
 7101SOL     OW28175   3.832   3.168   5.375 -0.3464  0.3744  0.1541
 7101SOL    HW228176   3.917   3.212   5.369 -0.6446  1.0106  0.5208
 7101SOL    HW328177   3.791   3.205   5.452  0.2025 -1.9846  1.6981
 7101SOL    MW428178   3.838   3.178   5.384 -0.3746 -0.0151 -0.0751
 7102SOL     OW28179   3.384   1.228   1.260  0.1626  0.3358  0.3219
 7102SOL    HW228180   3.390   1.157   1.324 -0.6135 -0.6083 -0.6190
 7102SOL    HW328181   3.429   1.301   1.302  1.8027 -0.9538  0.9687
 7102SOL    MW428182   3.391   1.228   1.274  0.3973  0.1193  0.0035
 7103SOL     OW28183   3.948   6.391   2.415 -0.4876  0.0262  0.1601
 7103SOL    HW228184   3.994   6.313   2.446  1.3842  0.7661 -0.6634
 7103SOL    HW328185   3.862   6.386   2.457  0.6439 -0.9079  2.5190
 7103SOL    MW428186   3.943   6.380   2.425 -0.5055  0.4889 -0.3622
 7104SOL     OW28187   6.098   1.432   1.403 -0.2329 -0.1309 -0.1903
 7104SOL    HW228188   6.101   1.338   1.422 -0.7293 -0.0660  0.2362
 7104SOL    HW328189   6.008   1.458   1.423 -0.0281  0.4880 -0.0458
 7104SOL    MW428190   6.087   1.423   1.409  0.1920 -0.1338 -0.2337
 7105SOL     OW28191   4.748   0.849   3.227  0.5130 -0.5470  0.0993
 7105SOL    HW228192   4.667   0.849   3.175 -0.2966 -0.8581  1.3250
 7105SOL    HW328193   4.750   0.763   3.269  0.1411  0.3443  2.0726
 7105SOL    MW428194   4.737   0.838   3.226  0.5262  0.1293 -0.3091
 7106SOL     OW28195   0.144   4.280   3.002 -0.5113  0.7401  0.4962
 7106SOL    HW228196   0.185   4.205   3.044 -1.4504  1.0054  1.9527
 7106SOL    HW328197   0.217   4.336   2.976  0.3769 -1.5103 -2.4814
 7106SOL    MW428198   0.159   4.277   3.004 -0.0432 -0.2392 -0.3777
 7107SOL     OW28199   3.290   2.321   2.401 -0.0066 -0.2998 -0.2687
 7107SOL    HW228200   3.374   2.305   2.357  0.2167  0.0137  0.0413
 7107SOL    HW328201   3.292   2.414   2.423 -1.4724  0.2906 -2.3991
 7107SOL    MW428202   3.302   2.331   2.398 -0.4261 -0.5909  0.7083
 7108SOL     OW28203   0.792   3.603   1.533  0.4364 -0.1070  0.6264
 7108SOL    HW228204   0.714   3.655   1.510  0.4443  0.7665  2.4369
 7108SOL    HW328205   0.767   3.557   1.613  1.0103 -1.6762 -0.0474
 7108SOL    MW428206   0.778   3.604   1.540 -0.2601 -0.3387  0.5107
 7109SOL     OW28207   3.449   4.121   3.861  0.1237  0.0823 -0.2291
 7109SOL    HW228208   3.395   4.115   3.940 -0.0744 -1.0992 -0.4299
 7109SOL    HW328209   3.537   4.097   3.890  0.3385  0.9458 -0.1218
 7109SOL    MW428210   3.453   4.117   3.875 -0.5772 -0.0522  0.0701
 7110SOL     OW28211   2.898   1.614   6.292 -0.4886 -0.2673 -0.1351
 7110SOL    HW228212   2.988   1.586   6.272  0.1258  1.1874  0.4318
 7110SOL    HW328213   2.909   1.695   6.341 -2.1412  0.0917 -0.3063
 7110SOL    MW428214   2.912   1.621   6.296  0.2005 -0.0456 -1.0362
 7111SOL     OW28215   5.393   5.424   1.845  0.1375  0.0434  0.0404
 7111SOL    HW228216   5.389   5.437   1.750  0.3894 -1.3298 -0.1746
 7111SOL    HW328217   5.486   5.418   1.864  0.0788 -3.4977 -0.2347
 7111SOL    MW428218   5.405   5.425   1.835  0.6260 -0.4499 -0.5287
 7112SOL     OW28219   0.434   1.267   4.388 -0.6790  0.0501 -0.4019
 7112SOL    HW228220   0.487   1.297   4.461  0.1146 -0.0259 -0.9361
 7112SOL    HW328221   0.396   1.184   4.418 -1.2781  0.5812  0.3353
 7112SOL    MW428222   0.436   1.260   4.402  0.3096  0.3470 -0.0247
 7113SOL     OW28223   2.242   0.588   0.573  0.2788 -0.7430 -0.4051
 7113SOL    HW228224   2.205   0.641   0.643  1.2500 -0.5513 -0.0175
 7113SOL    HW328225   2.189   0.509   0.572 -0.8877  0.0196 -0.6699
 7113SOL    MW428226   2.230   0.585   0.582  0.4555 -0.8543 -0.3946
 7114SOL     OW28227   2.071   4.989   3.940 -0.4377 -0.0024  0.4088
 7114SOL    HW228228   2.011   4.934   3.990 -1.4320  0.3420 -0.3732
 7114SOL    HW328229   2.014   5.044   3.886  0.5766  0.4409 -0.2431
 7114SOL    MW428230   2.056   4.989   3.939 -0.3905  0.5487 -0.3223
 7115SOL     OW28231   2.615   5.040   0.571  0.2348 -0.1513 -0.5585
 7115SOL    HW228232   2.649   5.017   0.485 -2.1368 -1.2995 -1.2907
 7115SOL    HW328233   2.573   5.125   0.560 -0.1773 -0.3545 -0.5785
 7115SOL    MW428234   2.614   5.048   0.558  0.2887 -0.5131 -0.1122
 7116SOL     OW28235   3.970   4.862   0.048 -0.5263  0.0521  0.4785
 7116SOL    HW228236   3.926   4.848   0.132  0.0619 -0.8642  0.6526
 7116SOL    HW328237   4.048   4.913   0.070 -0.9600  0.8084  0.3112
 7116SOL    MW428238   3.975   4.867   0.062  0.5781 -0.3105  0.5689
 7117SOL     OW28239   5.431   0.965   1.733  0.0605 -0.1429  0.0758
 7117SOL    HW228240   5.517   1.000   1.708  1.0427 -1.3570  1.5375
 7117SOL    HW328241   5.421   0.885   1.681  1.1446 -1.5152  1.8443
 7117SOL    MW428242   5.441   0.959   1.723 -0.0474 -0.1432  0.6926
 7118SOL     OW28243   1.003   3.965   0.362 -0.3985 -0.2448  0.3584
 7118SOL    HW228244   0.973   3.963   0.271 -1.6376 -0.8222  0.7555
 7118SOL    HW328245   1.051   4.047   0.370  0.7093 -0.7209 -1.1088
 7118SOL    MW428246   1.005   3.975   0.351 -0.2703  0.1322  0.2246
 7119SOL     OW28247   2.219   0.049   4.436  0.0699  0.2134  0.1389
 7119SOL    HW228248   2.278   0.044   4.511  0.0575 -0.6619  0.1027
 7119SOL    HW328249   2.158  -0.023   4.448 -1.5350  1.5921  0.5988
 7119SOL    MW428250   2.219   0.039   4.447  0.3866 -0.1004  0.4204
 7120SOL     OW28251   4.427   0.500   3.741  0.0327  0.0118  0.3658
 7120SOL    HW228252   4.393   0.582   3.776  1.0334  0.7173 -0.2530
 7120SOL    HW328253   4.476   0.526   3.663 -0.4953 -1.2998 -0.4368
 7120SOL    MW428254   4.429   0.514   3.736 -0.2609 -0.1771  0.0397
 7121SOL     OW28255   2.953   0.119   4.203 -0.2306  0.4974 -0.5623
 7121SOL    HW228256   3.026   0.154   4.255 -0.3339  0.9576 -0.7234
 7121SOL    HW328257   2.881   0.110   4.265 -0.5419  1.6343 -0.7484
 7121SOL    MW428258   2.953   0.122   4.218 -0.2484  0.9523 -0.2783
 7122SOL     OW28259   3.553   0.043   0.651  0.4427  0.0621  0.2453
 7122SOL    HW228260   3.536  -0.047   0.678 -1.9379  0.1599 -0.6756
 7122SOL    HW328261   3.576   0.036   0.559  0.9418  0.3606  0.3430
 7122SOL    MW428262   3.553   0.030   0.643 -0.1429 -0.1460  0.0344
 7123SOL     OW28263   3.837   3.372   3.025 -0.0104 -0.0267  0.0478
 7123SOL    HW228264   3.836   3.386   3.119 -1.3682 -1.4491  0.2867
 7123SOL    HW328265   3.745   3.375   2.999  0.3971  1.4371 -1.4438
 7123SOL    MW428266   3.825   3.375   3.034  0.1408 -0.4035 -0.0311
 7124SOL     OW28267   2.797   0.008   5.904  0.0378  0.4248  0.2345
 7124SOL    HW228268   2.762   0.032   5.990  0.3854  0.1447  0.4598
 7124SOL    HW328269   2.840   0.087   5.872 -0.6159  0.7083  0.0477
 7124SOL    MW428270   2.799   0.022   5.911 -0.5629 -0.4324  0.3200
 7125SOL     OW28271   3.709   3.000   4.484 -0.3693 -0.4773 -0.0334
 7125SOL    HW228272   3.731   2.962   4.569 -0.3313  0.6833  0.5070
 7125SOL    HW328273   3.788   2.989   4.431  0.3999  0.7077  0.8108
 7125SOL    MW428274   3.722   2.994   4.488 -0.1671  0.0167  0.4802
 7126SOL     OW28275   3.376   1.128   0.810 -0.5277  0.1324  0.1337
 7126SOL    HW228276   3.445   1.148   0.873 -1.6714  0.7623  1.1996
 7126SOL    HW328277   3.414   1.153   0.725  0.0644  1.7572  0.8449
 7126SOL    MW428278   3.390   1.134   0.807 -0.0167  0.6121 -0.4765
 7127SOL     OW28279   5.499   3.665   0.499 -0.6898  0.0205 -0.5635
 7127SOL    HW228280   5.413   3.699   0.477 -0.9613 -0.1702  0.1574
 7127SOL    HW328281   5.554   3.742   0.508 -1.2971  0.3106  1.0556
 7127SOL    MW428282   5.495   3.679   0.497  0.0826  1.0765 -0.3853
 7128SOL     OW28283   2.971   3.861   2.669 -0.0375 -0.6354  0.3111
 7128SOL    HW228284   2.962   3.766   2.673  0.2675 -0.6575  0.4559
 7128SOL    HW328285   3.051   3.880   2.717 -0.9510 -0.1552  1.6923
 7128SOL    MW428286   2.980   3.851   2.676  0.2171  0.1931  0.4966
 7129SOL     OW28287   5.568   0.016   0.857  0.4293  0.3040 -0.2705
 7129SOL    HW228288   5.479   0.050   0.862 -0.3305 -1.7112  2.3272
 7129SOL    HW328289   5.623   0.085   0.894 -0.4198  0.5787  0.5051
 7129SOL    MW428290   5.564   0.030   0.863 -0.2885  0.3976  0.1450
 7130SOL     OW28291   4.084   4.024   4.096  0.1258  0.0549  0.1131
 7130SOL    HW228292   4.018   4.087   4.066 -1.1886 -1.5127 -0.4149
 7130SOL    HW328293   4.141   4.011   4.020  0.4781  0.6715  0.2626
 7130SOL    MW428294   4.083   4.031   4.082  0.4647  0.1839  0.3269
 7131SOL     OW28295   5.912   0.473   0.631  0.1171  0.0767 -0.1277
 7131SOL    HW228296   5.852   0.421   0.577 -1.9789  1.3036  0.8871
 7131SOL    HW328297   5.889   0.450   0.721  1.1689  0.6194  0.2964
 7131SOL    MW428298   5.901   0.463   0.636  0.0054 -0.0954 -0.1287
 7132SOL     OW28299   5.535   2.673   6.321  0.2664  0.2877  0.2845
 7132SOL    HW228300   5.447   2.674   6.360 -0.4228 -0.4831 -1.1766
 7132SOL    HW328301   5.520   2.685   6.227  1.8518  1.7370  0.1610
 7132SOL    MW428302   5.521   2.675   6.314 -0.1094  0.2970  0.0238
 7133SOL     OW28303   2.564   4.352   5.658 -0.4600  0.5475 -0.5520
 7133SOL    HW228304   2.501   4.339   5.588  0.0746 -0.1128 -0.9222
 7133SOL    HW328305   2.536   4.293   5.728 -1.0870  1.3252 -0.1378
 7133SOL    MW428306   2.552   4.343   5.658 -0.0770 -0.7566  0.8129
 7134SOL     OW28307   1.570   5.080   0.375 -0.2060 -0.0155 -0.4445
 7134SOL    HW228308   1.545   5.115   0.460  0.8131 -0.6258  0.1187
 7134SOL    HW328309   1.491   5.090   0.322 -0.3974  1.7611  0.1006
 7134SOL    MW428310   1.556   5.086   0.379 -0.1118  0.2549  0.1953
 7135SOL     OW28311   1.047   4.552   4.237  0.1873 -0.4354 -0.2367
 7135SOL    HW228312   1.105   4.480   4.263 -0.0731 -0.7975 -0.6456
 7135SOL    HW328313   1.002   4.519   4.160  2.4743  1.4022 -2.5073
 7135SOL    MW428314   1.049   4.538   4.230  0.1037 -0.0584 -0.5859
 7136SOL     OW28315   5.589   3.419   0.782  0.0793  0.4880  0.2934
 7136SOL    HW228316   5.586   3.506   0.823 -1.4099 -0.3704  2.1515
 7136SOL    HW328317   5.503   3.408   0.743  0.0589 -0.3769  0.5671
 7136SOL    MW428318   5.578   3.429   0.783 -0.3708  0.0477 -0.3571
 7137SOL     OW28319   0.900   3.334   2.816  0.3058 -0.2685 -0.0907
 7137SOL    HW228320   0.985   3.373   2.794  0.5000  0.5368  1.8899
 7137SOL    HW328321   0.872   3.380   2.895 -1.4451 -1.3203 -0.0446
 7137SOL    MW428322   0.908   3.345   2.823  0.7931 -0.4467  0.5694
 7138SOL     OW28323   1.713   3.813   0.218  0.1450 -0.5926 -0.5164
 7138SOL    HW228324   1.740   3.878   0.282 -0.2093  0.5137 -1.4510
 7138SOL    HW328325   1.790   3.800   0.162 -0.5019  0.9503 -1.8604
 7138SOL    MW428326   1.726   3.820   0.219  0.3706 -0.3148 -0.4736
 7139SOL     OW28327   2.976   1.789   1.385 -0.2133 -0.3806 -0.2985
 7139SOL    HW228328   3.051   1.847   1.397 -1.2552  1.1061 -0.7852
 7139SOL    HW328329   2.919   1.806   1.460  0.5366 -2.5803  0.8885
 7139SOL    MW428330   2.978   1.799   1.396  0.2980 -0.2906  0.6604
 7140SOL     OW28331   2.106   1.567   3.327  0.6163 -0.1907 -0.0838
 7140SOL    HW228332   2.053   1.642   3.299  0.3818 -0.7772 -1.3035
 7140SOL    HW328333   2.051   1.491   3.310  0.7020 -0.6399  1.5106
 7140SOL    MW428334   2.092   1.567   3.321 -0.1275  0.3093 -0.6483
 7141SOL     OW28335   0.881   5.587   4.752  0.0502  0.1402  0.1889
 7141SOL    HW228336   0.864   5.498   4.722  0.9820 -0.1543  0.5000
 7141SOL    HW328337   0.796   5.618   4.785 -0.4978 -0.2835 -0.7765
 7141SOL    MW428338   0.867   5.579   4.752 -0.0030  0.1612 -0.4834
 7142SOL     OW28339   2.751   2.620   1.433 -0.0207 -0.7115  0.2506
 7142SOL    HW228340   2.777   2.705   1.398 -2.0312 -0.5311 -0.9765
 7142SOL    HW328341   2.832   2.571   1.440  1.2534  1.4227  1.3975
 7142SOL    MW428342   2.765   2.625   1.429  0.2533  0.1307 -0.3896
 7143SOL     OW28343   2.611   5.407   5.461 -0.0074  0.9208 -0.1019
 7143SOL    HW228344   2.585   5.470   5.529  0.7488  0.8611  0.2548
 7143SOL    HW328345   2.533   5.398   5.406 -0.5111  1.2595  0.5351
 7143SOL    MW428346   2.597   5.414   5.463  0.1567 -0.4172  0.0628
 7144SOL     OW28347   1.223   0.127   1.980 -0.0766 -0.2174 -0.5914
 7144SOL    HW228348   1.256   0.132   2.070 -1.1462  0.9369 -0.2386
 7144SOL    HW328349   1.277   0.060   1.938  1.9870  0.8128  0.2670
 7144SOL    MW428350   1.235   0.119   1.986  0.7567 -0.1786  0.8618
 7145SOL     OW28351   0.014   1.183   4.991 -0.3272 -0.0384  0.5628
 7145SOL    HW228352   0.075   1.253   5.016 -2.4430  1.8723  0.7512
 7145SOL    HW328353  -0.026   1.155   5.073  0.0235 -1.0406  0.4063
 7145SOL    MW428354   0.017   1.189   5.005 -0.2317 -0.2015 -0.3894
 7146SOL     OW28355   4.044   4.035   2.782  0.4803  0.3763  0.0852
 7146SOL    HW228356   3.951   4.057   2.778  0.2324 -0.7304 -2.3340
 7146SOL    HW328357   4.071   4.031   2.690  2.6094 -0.5732  0.6887
 7146SOL    MW428358   4.035   4.037   2.769 -0.4282  0.1330  0.3163
 7147SOL     OW28359   5.335   2.987   3.344  0.2343 -0.6054 -0.1713
 7147SOL    HW228360   5.262   3.049   3.348  0.2125 -0.6904  0.9901
 7147SOL    HW328361   5.299   2.905   3.376  0.4971 -1.0103 -0.8797
 7147SOL    MW428362   5.321   2.984   3.348  0.1480 -0.3556 -0.1764
 7148SOL     OW28363   0.583   2.933   0.681  0.2006  0.4185 -0.1167
 7148SOL    HW228364   0.556   2.894   0.765  0.4825  3.5761  1.5750
 7148SOL    HW328365   0.636   3.009   0.706 -1.4497  2.7265 -3.1147
 7148SOL    MW428366   0.587   2.938   0.696 -0.4051 -0.0447  0.5565
 7149SOL     OW28367   1.108   6.312   2.054  0.2275 -0.0632  0.0165
 7149SOL    HW228368   1.038   6.331   2.117 -0.5080  0.4923 -0.9300
 7149SOL    HW328369   1.135   6.398   2.022  1.2331 -0.2911  0.2434
 7149SOL    MW428370   1.102   6.326   2.058  0.3930  0.5273 -0.0366
 7150SOL     OW28371   6.238   4.486   2.581  0.6686 -0.1520  0.0753
 7150SOL    HW228372   6.281   4.507   2.498 -0.2270 -0.9572 -0.6221
 7150SOL    HW328373   6.242   4.391   2.586  1.8594 -0.0533  1.6122
 7150SOL    MW428374   6.244   4.476   2.571  0.4505 -0.7387  0.3656
 7151SOL     OW28375   1.149   4.066   5.837 -0.1194  0.3882 -0.4332
 7151SOL    HW228376   1.142   4.064   5.741  0.9189  0.5038 -0.5175
 7151SOL    HW328377   1.059   4.054   5.867 -0.1588 -2.8043 -1.3898
 7151SOL    MW428378   1.136   4.064   5.828  0.0510  0.3354  0.6658
 7152SOL     OW28379   3.858   4.001   3.411 -0.6985 -0.3346  0.0670
 7152SOL    HW228380   3.834   3.918   3.371 -0.9498  0.2036 -0.9574
 7152SOL    HW328381   3.842   4.066   3.342  2.7974  0.2102 -0.4374
 7152SOL    MW428382   3.853   3.999   3.396 -0.6108 -0.3404  0.4242
 7153SOL     OW28383   0.403   2.239   1.460 -0.5523  0.3129 -0.1184
 7153SOL    HW228384   0.351   2.176   1.409 -0.6480  0.0322  0.3156
 7153SOL    HW328385   0.473   2.265   1.401  2.2236 -3.5935  1.0410
 7153SOL    MW428386   0.405   2.234   1.445  0.4611  0.2484  0.1522
 7154SOL     OW28387   0.708   6.305   3.623 -0.0852 -0.2131  0.1024
 7154SOL    HW228388   0.776   6.239   3.635  2.2255  1.8307 -0.8791
 7154SOL    HW328389   0.659   6.304   3.705  2.5338 -0.3198  1.7764
 7154SOL    MW428390   0.710   6.296   3.635 -0.1543  0.1661 -0.2665
 7155SOL     OW28391   0.677   3.095   4.500 -0.8569  0.2313  0.2920
 7155SOL    HW228392   0.673   3.179   4.454  0.9695  1.2311  1.8313
 7155SOL    HW328393   0.699   3.032   4.432 -0.9085  1.2064 -0.6603
 7155SOL    MW428394   0.679   3.098   4.485  0.1582  0.7244  0.0163
 7156SOL     OW28395   2.495   2.318   1.230 -0.1311  0.0869 -0.3692
 7156SOL    HW228396   2.435   2.309   1.304 -0.0031  3.1223  0.2268
 7156SOL    HW328397   2.481   2.238   1.178 -0.5005 -1.9729  2.6583
 7156SOL    MW428398   2.485   2.306   1.233  0.3859  0.0303 -0.1269
 7157SOL     OW28399   5.853   2.245   1.082  0.8098 -0.0906  0.2111
 7157SOL    HW228400   5.863   2.313   1.148  0.3756  0.8847 -0.7010
 7157SOL    HW328401   5.769   2.264   1.039  0.2713 -1.6782  0.4683
 7157SOL    MW428402   5.843   2.256   1.085 -0.1025  0.1659 -0.1657
 7158SOL     OW28403   3.856   0.128   1.176 -0.1499  0.1744  0.0754
 7158SOL    HW228404   3.891   0.183   1.246 -1.1702 -1.1215  1.6768
 7158SOL    HW328405   3.766   0.159   1.163 -0.5088 -0.6609  0.5150
 7158SOL    MW428406   3.849   0.139   1.183  0.0514 -0.0804 -0.0255
 7159SOL     OW28407   0.797   4.538   0.744 -0.1395 -0.3366 -0.2013
 7159SOL    HW228408   0.852   4.469   0.707 -0.1524  0.4201 -1.7472
 7159SOL    HW328409   0.779   4.511   0.833 -0.9523 -2.8275 -1.0483
 7159SOL    MW428410   0.802   4.526   0.751 -0.5239 -0.5119 -0.5133
 7160SOL     OW28411   4.736   1.347   6.278 -0.1330  0.4631  0.2751
 7160SOL    HW228412   4.678   1.352   6.354  1.5023  0.4447  1.6049
 7160SOL    HW328413   4.813   1.299   6.310  1.7473  2.6950 -0.5851
 7160SOL    MW428414   4.739   1.341   6.293 -0.4543 -0.4007  0.1563
 7161SOL     OW28415   0.696   1.761   4.024 -0.0358  0.0372 -0.0196
 7161SOL    HW228416   0.608   1.728   4.012 -0.5361  1.1098  0.5649
 7161SOL    HW328417   0.685   1.846   4.068  1.2989 -0.0065  0.4658
 7161SOL    MW428418   0.683   1.768   4.028  0.3143 -0.0673  0.0374
 7162SOL     OW28419   2.845   0.848   5.303 -0.2026 -0.6092  0.4907
 7162SOL    HW228420   2.814   0.895   5.381 -2.3022  0.3731 -0.8296
 7162SOL    HW328421   2.919   0.899   5.272  0.0068 -0.4256  1.2582
 7162SOL    MW428422   2.850   0.861   5.309 -0.3344 -0.2108  0.4518
 7163SOL     OW28423   1.827   1.078   1.265 -0.1307  0.1496 -0.0068
 7163SOL    HW228424   1.855   1.120   1.347 -1.1810  3.1000 -1.0443
 7163SOL    HW328425   1.753   1.022   1.290 -1.0005  1.6876  0.9659
 7163SOL    MW428426   1.821   1.076   1.279 -0.0102 -0.0289 -0.2376
 7164SOL     OW28427   3.373   4.380   2.974  0.0311 -0.1676 -0.2918
 7164SOL    HW228428   3.460   4.340   2.985  0.9284  1.8889  0.7746
 7164SOL    HW328429   3.391   4.474   2.973 -2.0981  0.2684 -1.2744
 7164SOL    MW428430   3.387   4.387   2.975 -0.3496 -0.3359 -0.0181
 7165SOL     OW28431   0.883   0.173   2.820 -0.2854  0.5119 -0.1506
 7165SOL    HW228432   0.903   0.266   2.813  2.2733  0.1441  1.2708
 7165SOL    HW328433   0.825   0.166   2.896  1.0949  0.7769  0.9514
 7165SOL    MW428434   0.878   0.184   2.829  0.3538  0.2889  0.0287
 7166SOL     OW28435   4.613   4.875   0.179 -0.2831  0.1118 -0.0920
 7166SOL    HW228436   4.651   4.792   0.206  3.1074  0.7402 -2.2818
 7166SOL    HW328437   4.576   4.912   0.259  0.2899 -2.4028  1.4345
 7166SOL    MW428438   4.613   4.869   0.193  0.3549  0.0432  0.0122
 7167SOL     OW28439   4.555   5.494   3.756  0.0475 -0.7650  0.1247
 7167SOL    HW228440   4.613   5.423   3.728  0.1124 -1.8361  2.7351
 7167SOL    HW328441   4.483   5.450   3.802 -2.2719  0.6005 -1.9058
 7167SOL    MW428442   4.553   5.479   3.758 -0.1773 -0.1284  0.5245
 7168SOL     OW28443   2.673   4.450   2.220 -0.1207  0.4980  0.3358
 7168SOL    HW228444   2.592   4.500   2.232 -0.0548  0.9667 -1.0055
 7168SOL    HW328445   2.666   4.378   2.284 -1.7548  0.3227  0.0257
 7168SOL    MW428446   2.661   4.447   2.230 -0.0193 -0.6065  0.3391
 7169SOL     OW28447   4.476   1.943   6.001  0.0987 -0.0448 -0.0732
 7169SOL    HW228448   4.570   1.952   5.984  0.2574 -0.7662  0.3851
 7169SOL    HW328449   4.462   1.849   6.005 -0.6386  0.0651 -0.0948
 7169SOL    MW428450   4.487   1.932   6.000 -0.0523  0.2888 -0.1295
 7170SOL     OW28451   5.814   0.051   0.485 -0.1942 -0.3911  0.9246
 7170SOL    HW228452   5.757  -0.010   0.531 -1.4564  0.3962  0.4711
 7170SOL    HW328453   5.882   0.074   0.548 -0.8520 -0.7222  1.7716
 7170SOL    MW428454   5.816   0.046   0.499 -0.6218 -0.0973  0.5855
 7171SOL     OW28455   3.064   1.121   3.664 -0.3573 -0.2893 -0.0801
 7171SOL    HW228456   3.108   1.042   3.631  1.6081  1.0586 -0.8603
 7171SOL    HW328457   2.974   1.113   3.630 -0.1229 -2.0111 -0.4187
 7171SOL    MW428458   3.058   1.110   3.655  0.4130 -0.5867  0.6895
 7172SOL     OW28459   0.067   1.139   2.141  0.1203  0.0824 -0.1931
 7172SOL    HW228460   0.040   1.135   2.233 -0.2188  0.4246 -0.2773
 7172SOL    HW328461   0.151   1.186   2.144  0.4626 -0.5293  0.0118
 7172SOL    MW428462   0.075   1.145   2.154  0.3070  0.0878 -0.4341
 7173SOL     OW28463   5.860   5.643   2.652 -0.1223  0.0527 -0.1692
 7173SOL    HW228464   5.940   5.596   2.629 -0.4551 -0.6447  0.0687
 7173SOL    HW328465   5.789   5.583   2.629 -0.5090 -0.1526  1.4134
 7173SOL    MW428466   5.861   5.629   2.646  0.2690  0.2403  0.0759
 7174SOL     OW28467   3.314   6.071   5.163  0.6988 -0.0747  0.0904
 7174SOL    HW228468   3.258   6.068   5.240 -1.0165 -4.3216 -1.0581
 7174SOL    HW328469   3.399   6.039   5.193  0.7192  0.4687  0.6243
 7174SOL    MW428470   3.318   6.066   5.177  0.2836  0.3951 -0.4083
 7175SOL     OW28471   5.147   1.047   1.334  0.1943 -0.2849  0.2032
 7175SOL    HW228472   5.189   1.074   1.416 -0.1027  1.0490 -0.0530
 7175SOL    HW328473   5.068   1.001   1.361  0.2797 -0.1624  0.6677
 7175SOL    MW428474   5.142   1.044   1.348 -0.1171 -0.5136  0.0211
 7176SOL     OW28475   2.798   0.719   2.472  0.3897 -0.4772  0.0979
 7176SOL    HW228476   2.754   0.653   2.525  0.6459  0.7264  1.8854
 7176SOL    HW328477   2.743   0.727   2.394  0.6727 -3.1841 -0.4961
 7176SOL    MW428478   2.785   0.711   2.469 -0.5037  0.5816 -0.3489
 7177SOL     OW28479   6.118   0.212   5.222 -0.1492  0.7671  0.0104
 7177SOL    HW228480   6.130   0.283   5.159 -1.8785  1.9747  0.9773
 7177SOL    HW328481   6.147   0.249   5.305  0.0961 -0.1058  0.3256
 7177SOL    MW428482   6.124   0.226   5.225  0.6476 -0.0742  0.5214
 7178SOL     OW28483   2.054   3.101   4.109  0.3161 -0.0271 -0.4180
 7178SOL    HW228484   2.061   3.146   4.025 -0.1093  1.7190  0.4212
 7178SOL    HW328485   1.991   3.154   4.159 -0.9004 -2.1030  0.3452
 7178SOL    MW428486   2.047   3.114   4.105  0.1405 -0.1408 -0.0097
 7179SOL     OW28487   6.061   3.257   2.074 -0.5047  0.2159  0.0967
 7179SOL    HW228488   5.979   3.240   2.029 -0.1942 -1.0707 -0.0144
 7179SOL    HW328489   6.125   3.200   2.031  0.5533  1.4779 -0.0937
 7179SOL    MW428490   6.059   3.247   2.062  0.1380 -0.4719 -0.2784
 7180SOL     OW28491   5.001   3.728   6.412  0.0468 -0.1270  0.1115
 7180SOL    HW228492   4.990   3.768   6.326 -0.3408 -0.5637 -0.0533
 7180SOL    HW328493   5.089   3.691   6.411  0.3669  0.6132  0.2277
 7180SOL    MW428494   5.011   3.728   6.401  0.3819  0.2720 -0.3415
 7181SOL     OW28495   1.983   0.946   2.601 -0.5150  0.2674  0.3163
 7181SOL    HW228496   2.064   0.986   2.570  0.6662  0.2474  3.0788
 7181SOL    HW328497   1.916   0.978   2.541  0.5746  5.0914  1.2524
 7181SOL    MW428498   1.985   0.956   2.589 -0.2720  0.4003 -0.2353
 7182SOL     OW28499   3.074   5.405   3.067  0.0067 -0.2197  0.1865
 7182SOL    HW228500   3.040   5.327   3.024 -1.0837 -0.1348  0.8475
 7182SOL    HW328501   3.014   5.475   3.041  0.5007  0.2339  0.2463
 7182SOL    MW428502   3.062   5.404   3.058 -0.3175  0.0106  0.1521
 7183SOL     OW28503   1.035   5.571   4.238 -0.7894  0.3667 -0.4721
 7183SOL    HW228504   1.036   5.634   4.310 -0.4390  0.7285 -0.7862
 7183SOL    HW328505   1.086   5.613   4.169 -1.3406  0.1408 -1.0289
 7183SOL    MW428506   1.042   5.585   4.238 -0.3582 -0.6219  0.4975
 7184SOL     OW28507   2.543   5.311   0.521 -0.5006 -0.5117 -0.1296
 7184SOL    HW228508   2.492   5.327   0.441  0.2193 -0.6040 -0.6153
 7184SOL    HW328509   2.534   5.392   0.571  0.2692  0.1423 -1.0019
 7184SOL    MW428510   2.535   5.324   0.517  0.0937 -0.8271  0.4823
 7185SOL     OW28511   3.831   6.113   0.691  0.4667  0.8543  0.1149
 7185SOL    HW228512   3.762   6.046   0.697  0.2459  1.0653 -0.0619
 7185SOL    HW328513   3.910   6.068   0.721  0.5558  0.1806 -1.0738
 7185SOL    MW428514   3.832   6.098   0.696 -0.8571 -0.0991  0.1326
 7186SOL     OW28515   5.720   5.712   3.923 -0.8043 -0.5397 -0.0906
 7186SOL    HW228516   5.719   5.802   3.888 -2.6415 -0.1744  0.7703
 7186SOL    HW328517   5.752   5.659   3.850  1.6588  0.9326 -0.1892
 7186SOL    MW428518   5.724   5.717   3.909 -0.2012  0.3699  0.0427
 7187SOL     OW28519   3.972   5.911   2.295 -0.4015 -0.0408  0.7426
 7187SOL    HW228520   4.055   5.887   2.336  0.1739 -1.9773 -1.3721
 7187SOL    HW328521   3.937   5.829   2.260 -1.8118  1.1778 -0.8867
 7187SOL    MW428522   3.978   5.897   2.296  0.2367  0.1955  0.4124
 7188SOL     OW28523   2.148   5.520   1.722  0.0950 -0.8496 -0.7633
 7188SOL    HW228524   2.136   5.519   1.817 -1.9037 -0.6865 -0.9800
 7188SOL    HW328525   2.218   5.584   1.708 -1.0745  0.8027  0.4885
 7188SOL    MW428526   2.156   5.529   1.732 -0.0603  0.8452  0.8931
 7189SOL     OW28527   6.366   5.213   2.056  0.0800  0.2182  0.3784
 7189SOL    HW228528   6.384   5.295   2.103 -1.1599  0.6864  0.0936
 7189SOL    HW328529   6.367   5.238   1.964  0.8520 -0.3451  0.2256
 7189SOL    MW428530   6.368   5.227   2.050  0.2361 -0.0857  0.3915
 7190SOL     OW28531   2.581   0.396   4.877  0.1587 -0.1780  0.8970
 7190SOL    HW228532   2.532   0.478   4.878  1.0598  0.5650 -2.3859
 7190SOL    HW328533   2.667   0.420   4.843 -0.0144 -2.6082 -1.5581
 7190SOL    MW428534   2.586   0.410   4.873  0.1944 -0.2644  0.0663
 7191SOL     OW28535   3.528   1.153   3.339  0.3389 -0.0432  0.0496
 7191SOL    HW228536   3.621   1.141   3.319  0.3382  0.2146 -0.1151
 7191SOL    HW328537   3.508   1.083   3.401  0.3714 -0.7881 -0.7644
 7191SOL    MW428538   3.538   1.142   3.344 -0.5489 -0.3016  0.1855
 7192SOL     OW28539   3.659   2.131   4.730 -0.3294  0.0604  0.3417
 7192SOL    HW228540   3.748   2.133   4.696 -0.7800 -0.5457 -0.9461
 7192SOL    HW328541   3.623   2.217   4.708 -0.9018 -0.6235 -1.6175
 7192SOL    MW428542   3.666   2.143   4.723  0.0664  0.0289 -0.3899
 7193SOL     OW28543   0.125   1.777   5.713  0.0811 -0.2386 -0.2878
 7193SOL    HW228544   0.200   1.718   5.718  0.8950  0.8396  0.7300
 7193SOL    HW328545   0.132   1.818   5.627  0.3325 -0.5561 -0.4209
 7193SOL    MW428546   0.136   1.775   5.702  0.4049  0.0660  0.5946
 7194SOL     OW28547   0.137   1.950   0.051 -0.5349 -0.0525  0.3918
 7194SOL    HW228548   0.121   1.872  -0.002 -2.3182 -0.5224  1.5525
 7194SOL    HW328549   0.119   2.023  -0.008 -3.2240 -0.5701  0.4669
 7194SOL    MW428550   0.132   1.950   0.036 -0.3312 -0.5238 -0.4429
 7195SOL     OW28551   5.713   6.093   2.980  0.0746 -0.0290  0.2833
 7195SOL    HW228552   5.793   6.041   2.968  0.8129  0.9403  0.8921
 7195SOL    HW328553   5.710   6.109   3.075 -1.9781 -1.8083  0.5910
 7195SOL    MW428554   5.723   6.088   2.991  0.2192 -0.0112 -0.3150
 7196SOL     OW28555   6.278   3.172   3.642 -0.2107  0.0129 -0.9081
 7196SOL    HW228556   6.255   3.263   3.623  0.2746  0.3114 -0.0947
 7196SOL    HW328557   6.210   3.143   3.703  1.0083  0.6239  0.8077
 7196SOL    MW428558   6.266   3.180   3.648 -0.6498 -0.0023 -0.4160
 7197SOL     OW28559   1.716   1.922   2.072  0.8834 -0.9032 -0.3676
 7197SOL    HW228560   1.660   2.000   2.081  1.1561 -0.8350  0.7695
 7197SOL    HW328561   1.690   1.884   1.988 -1.6604 -1.4856  0.6001
 7197SOL    MW428562   1.705   1.927   2.062  1.0123 -0.1791  0.1326
 7198SOL     OW28563   6.121   4.699   3.741  0.6817 -0.2294 -0.5393
 7198SOL    HW228564   6.105   4.634   3.808  1.9932 -1.0173 -0.9514
 7198SOL    HW328565   6.059   4.678   3.671 -0.0372  0.0146  0.0133
 7198SOL    MW428566   6.111   4.688   3.741  0.4634 -0.7345 -0.3323
 7199SOL     OW28567   5.037   5.546   2.412  0.4780  0.4620 -0.1295
 7199SOL    HW228568   5.031   5.468   2.358  2.7352  1.5297 -2.0792
 7199SOL    HW328569   5.011   5.618   2.355  0.4772  1.3641  0.9637
 7199SOL    MW428570   5.033   5.545   2.398 -1.0582  0.1610 -0.4573
 7200SOL     OW28571   1.885   4.384   3.962  0.2889  0.0821 -0.6153
 7200SOL    HW228572   1.950   4.450   3.940 -0.6335  1.5696  0.8694
 7200SOL    HW328573   1.911   4.307   3.913  2.6271  0.9009 -0.7577
 7200SOL    MW428574   1.897   4.383   3.953 -0.0426  0.5570 -0.2989
 7201SOL     OW28575   6.333   5.293   0.015  0.1733  0.3707  0.3811
 7201SOL    HW228576   6.269   5.354  -0.023 -1.8798 -0.9721  1.5073
 7201SOL    HW328577   6.414   5.311  -0.034 -0.5451  3.3163  0.0364
 7201SOL    MW428578   6.335   5.304   0.004  0.2970 -0.0107  0.7176
 7202SOL     OW28579   2.378   6.055   1.309  0.0623 -0.0403 -0.2233
 7202SOL    HW228580   2.468   6.086   1.299  1.5739 -2.1321  4.1233
 7202SOL    HW328581   2.381   5.964   1.281 -0.6550 -0.1739  0.1273
 7202SOL    MW428582   2.390   6.047   1.304  0.6232 -0.9291  0.3392
 7203SOL     OW28583   3.147   1.348   5.956  0.1421  1.2257  0.6225
 7203SOL    HW228584   3.072   1.365   5.898 -0.1164  0.8123  0.8373
 7203SOL    HW328585   3.185   1.435   5.971 -0.5267  1.4841  0.8336
 7203SOL    MW428586   3.142   1.362   5.950 -0.1869 -0.0036  0.4326
 7204SOL     OW28587   0.695   5.054   3.819  0.3572  0.2190  0.0710
 7204SOL    HW228588   0.745   5.036   3.739  0.6537  0.2297  0.2490
 7204SOL    HW328589   0.618   5.102   3.789  0.5976  0.4557 -0.1798
 7204SOL    MW428590   0.692   5.058   3.804 -0.2282 -0.5211 -0.0220
 7205SOL     OW28591   0.704   2.725   0.513 -0.5210  0.4032 -0.0965
 7205SOL    HW228592   0.671   2.655   0.569 -0.9241  1.6535  1.2922
 7205SOL    HW328593   0.682   2.806   0.560  2.8604  1.4114  0.0117
 7205SOL    MW428594   0.696   2.727   0.527 -0.0007 -0.0975  0.0133
 7206SOL     OW28595   0.896   2.523   1.905  0.0405  0.2945 -0.9448
 7206SOL    HW228596   0.813   2.488   1.935  1.6008 -0.8222  2.4970
 7206SOL    HW328597   0.926   2.461   1.839 -0.4875 -0.9408 -0.0467
 7206SOL    MW428598   0.889   2.510   1.900  0.6049 -0.1109  0.1310
 7207SOL     OW28599   0.195   0.116   3.974 -0.4498  0.3309  0.4640
 7207SOL    HW228600   0.134   0.097   3.903  1.2094 -1.5977 -0.5643
 7207SOL    HW328601   0.243   0.193   3.945 -1.3960  0.9947  0.6268
 7207SOL    MW428602   0.193   0.124   3.961 -0.1084  0.0518 -0.4881
 7208SOL     OW28603   4.661   5.644   4.079 -0.7008 -0.3044  0.3175
 7208SOL    HW228604   4.706   5.585   4.019 -1.2411 -0.5829  0.1845
 7208SOL    HW328605   4.732   5.690   4.124 -0.2607  1.2968 -1.8470
 7208SOL    MW428606   4.676   5.642   4.077 -0.2758 -0.0603 -0.2201
 7209SOL     OW28607   4.211   4.661   1.972 -0.0948  0.2933 -0.1754
 7209SOL    HW228608   4.155   4.725   1.929 -2.9380 -1.0327  1.2648
 7209SOL    HW328609   4.201   4.679   2.065 -0.5626 -1.8082  0.2527
 7209SOL    MW428610   4.202   4.672   1.978 -0.5590  0.2317 -0.5514
 7210SOL     OW28611   4.524   3.369   3.137  0.3843 -0.1017  0.2166
 7210SOL    HW228612   4.589   3.394   3.202 -0.0246 -0.6914  0.8617
 7210SOL    HW328613   4.536   3.275   3.125 -0.3362 -0.2155  0.3367
 7210SOL    MW428614   4.534   3.360   3.144 -0.0063  0.1307  0.1344
 7211SOL     OW28615   6.149   0.615   1.916  0.4488  0.0949  0.4512
 7211SOL    HW228616   6.100   0.540   1.948  0.5196 -0.1982 -0.1210
 7211SOL    HW328617   6.088   0.662   1.860  0.7104 -0.0806  0.0144
 7211SOL    MW428618   6.135   0.611   1.913 -0.3854  0.2565 -0.3154
 7212SOL     OW28619   5.288   4.388   5.979  0.0323  0.6173  0.0119
 7212SOL    HW228620   5.359   4.435   6.023 -1.5667  2.4811  0.7363
 7212SOL    HW328621   5.248   4.454   5.922  0.3921 -1.0567 -2.3313
 7212SOL    MW428622   5.292   4.403   5.977 -0.1844  0.3337 -0.1933
 7213SOL     OW28623   3.193   4.874   0.580  0.7001  0.2512 -0.0485
 7213SOL    HW228624   3.108   4.870   0.536  0.2654  0.1281  0.7829
 7213SOL    HW328625   3.232   4.788   0.564  0.1697 -0.1055  0.5239
 7213SOL    MW428626   3.187   4.862   0.572  0.1784  0.4503  0.1391
 7214SOL     OW28627   3.404  -0.001   6.418 -0.1207 -0.0627 -0.1098
 7214SOL    HW228628   3.470   0.064   6.442  0.9923 -1.8880  2.1201
 7214SOL    HW328629   3.450  -0.065   6.364  0.2436 -1.7468  2.0673
 7214SOL    MW428630   3.419  -0.001   6.414 -0.3189 -0.2161  0.7375
 7215SOL     OW28631   6.132   1.797   4.910  0.4011  0.3070 -0.2030
 7215SOL    HW228632   6.159   1.853   4.984  0.0818 -0.5422  0.5799
 7215SOL    HW328633   6.048   1.833   4.883 -0.3117 -0.3840  0.9813
 7215SOL    MW428634   6.125   1.809   4.916  0.0514  0.5922 -0.1702
 7216SOL     OW28635   5.925   0.212   3.936  0.3749 -0.6571  0.3002
 7216SOL    HW228636   6.012   0.192   3.900 -0.2018  0.2012 -1.6664
 7216SOL    HW328637   5.871   0.137   3.913 -0.1664  0.1872 -1.3456
 7216SOL    MW428638   5.930   0.200   3.928  0.5795  0.1949  0.2184
 7217SOL     OW28639   1.633   5.368   4.376 -0.3983  0.3261 -0.1386
 7217SOL    HW228640   1.575   5.303   4.334  0.2575 -0.6438  0.4211
 7217SOL    HW328641   1.704   5.380   4.313  1.1651 -1.9463  1.0099
 7217SOL    MW428642   1.635   5.361   4.362 -0.3090 -0.2045 -0.8157
 7218SOL     OW28643   5.132   3.236   0.029 -0.5948  0.0294 -0.1961
 7218SOL    HW228644   5.108   3.242  -0.064 -2.0737  0.8342  0.2083
 7218SOL    HW328645   5.049   3.223   0.074 -0.1129  1.5079  1.1734
 7218SOL    MW428646   5.118   3.235   0.022  0.1185  0.5730  0.1155
 7219SOL     OW28647   6.102   4.269   6.323  0.2294 -0.0287  0.2617
 7219SOL    HW228648   6.192   4.244   6.345  0.5611  2.2885  1.8419
 7219SOL    HW328649   6.048   4.207   6.373  0.8780 -1.3107 -0.5482
 7219SOL    MW428650   6.106   4.257   6.333  0.9012 -0.4844 -0.6682
 7220SOL     OW28651   6.242   0.012   4.517 -0.1429  0.3924  0.1620
 7220SOL    HW228652   6.235   0.070   4.441 -2.6324  2.4595  1.8118
 7220SOL    HW328653   6.262   0.071   4.590  2.4364 -1.5586  1.1792
 7220SOL    MW428654   6.244   0.027   4.516 -0.6910 -0.4480 -0.3029
 7221SOL     OW28655   0.818   0.849   0.839 -0.5375 -0.0813  0.2409
 7221SOL    HW228656   0.830   0.912   0.911 -1.4862  0.9438 -0.4570
 7221SOL    HW328657   0.750   0.790   0.870 -0.3391 -0.1647  0.5212
 7221SOL    MW428658   0.811   0.850   0.853  0.5928  0.5188  0.8366
 7222SOL     OW28659   6.009   4.563   3.536  0.5963  0.8498 -0.0014
 7222SOL    HW228660   5.974   4.605   3.457  0.8144  0.7461 -0.1510
 7222SOL    HW328661   6.089   4.521   3.507  0.6899  0.8360  0.2839
 7222SOL    MW428662   6.015   4.563   3.522  0.1184 -0.0240 -1.0924
 7223SOL     OW28663   2.139   3.449   2.971 -1.0757 -0.1845  0.4021
 7223SOL    HW228664   2.152   3.469   3.064  0.0568  0.9358  0.0290
 7223SOL    HW328665   2.213   3.489   2.927 -1.8823 -0.2302 -1.0649
 7223SOL    MW428666   2.150   3.457   2.977 -0.1820 -0.6423  0.9935
 7224SOL     OW28667   5.303   5.652   0.153 -0.0988 -0.0445 -0.1104
 7224SOL    HW228668   5.247   5.592   0.202  2.0036 -2.3139 -0.3016
 7224SOL    HW328669   5.319   5.608   0.070  1.7542  0.6500 -0.1605
 7224SOL    MW428670   5.298   5.639   0.148 -0.6012  0.1634 -0.0545
 7225SOL     OW28671   2.349   3.938   5.174 -0.4249 -0.0829  0.1185
 7225SOL    HW228672   2.444   3.928   5.163 -0.5226 -0.3287 -0.6045
 7225SOL    HW328673   2.317   3.958   5.086 -1.0332  0.0985  0.3757
 7225SOL    MW428674   2.358   3.939   5.161  0.1217 -0.1582  0.1209
 7226SOL     OW28675   0.776   1.832   4.498  0.1128  0.3408 -0.3791
 7226SOL    HW228676   0.836   1.785   4.440  0.0776 -1.4828  0.9780
 7226SOL    HW328677   0.806   1.923   4.494  1.2506 -0.0510 -1.7988
 7226SOL    MW428678   0.788   1.838   4.489  0.3672  0.2113  0.5152
 7227SOL     OW28679   4.545   1.671   3.461 -0.2741 -0.3356  0.2308
 7227SOL    HW228680   4.552   1.706   3.372 -1.8925  0.3664  0.3553
 7227SOL    HW328681   4.592   1.588   3.457  4.2493  1.9271  0.0670
 7227SOL    MW428682   4.552   1.665   3.449  0.2755  0.2543  0.0589
 7228SOL     OW28683   4.553   1.734   6.394  0.2326 -0.6327  0.4585
 7228SOL    HW228684   4.578   1.817   6.355 -2.7912 -0.7660 -2.1800
 7228SOL    HW328685   4.564   1.670   6.324 -1.8828 -1.5963  0.9310
 7228SOL    MW428686   4.558   1.736   6.380 -0.0216 -0.3094 -0.0893
 7229SOL     OW28687   3.041   0.682   4.345 -0.1380  0.2422  0.2808
 7229SOL    HW228688   3.043   0.756   4.285 -0.0203  0.9485  1.1442
 7229SOL    HW328689   2.972   0.704   4.408  1.2336  0.5766  1.7318
 7229SOL    MW428690   3.032   0.695   4.346 -0.1988 -1.1470  0.3245
 7230SOL     OW28691   1.110   1.717   3.568  0.3884 -0.0260  0.0374
 7230SOL    HW228692   1.087   1.787   3.507 -0.1335 -1.0897 -1.0290
 7230SOL    HW328693   1.206   1.721   3.574  0.3394  1.0215  0.3034
 7230SOL    MW428694   1.120   1.727   3.561 -0.8959 -0.2942  0.4033
 7231SOL     OW28695   0.261   0.809   3.745  0.3875  0.1224  0.0368
 7231SOL    HW228696   0.329   0.864   3.706  0.2570  0.2268 -0.0446
 7231SOL    HW328697   0.181   0.835   3.700  0.4496 -0.7055 -0.5928
 7231SOL    MW428698   0.260   0.820   3.734  0.3097  0.0687  0.3431
 7232SOL     OW28699   4.790   0.587   3.793 -0.1418 -0.3490  0.0455
 7232SOL    HW228700   4.834   0.574   3.877 -1.4159 -2.2991  0.4733
 7232SOL    HW328701   4.738   0.507   3.780 -2.2669  1.1433 -1.2142
 7232SOL    MW428702   4.789   0.574   3.802 -0.1069 -0.0087  0.5378
 7233SOL     OW28703   4.028   1.746   5.523 -0.6091 -0.0542 -0.2987
 7233SOL    HW228704   4.054   1.658   5.495  0.4602 -0.1063  0.7307
 7233SOL    HW328705   4.109   1.798   5.516 -0.5345  0.1590  1.6081
 7233SOL    MW428706   4.042   1.741   5.519 -0.3490 -0.0287 -0.4735
 7234SOL     OW28707   6.301   1.354   0.263 -0.5679  0.0320  0.0206
 7234SOL    HW228708   6.263   1.301   0.193 -1.1160  0.9738 -0.4184
 7234SOL    HW328709   6.280   1.444   0.238 -2.0131  0.3287  2.0966
 7234SOL    MW428710   6.293   1.359   0.250 -0.4699 -0.4988  0.1946
 7235SOL     OW28711   2.333   4.454   3.161 -0.0694  0.1719  0.2071
 7235SOL    HW228712   2.373   4.396   3.226  0.8785  1.2842  0.6495
 7235SOL    HW328713   2.370   4.540   3.179  0.4926  0.4694 -2.0102
 7235SOL    MW428714   2.343   4.457   3.172 -0.0919 -0.0631 -0.3124
 7236SOL     OW28715   2.186   1.308   4.319 -0.1343  0.4014  0.3885
 7236SOL    HW228716   2.208   1.346   4.404 -0.0799 -0.1151  0.6075
 7236SOL    HW328717   2.271   1.292   4.278 -0.1423  0.0966  0.4866
 7236SOL    MW428718   2.200   1.311   4.325  0.8405  0.1345  0.1482
 7237SOL     OW28719   2.732   4.399   0.427  0.2799 -0.1758 -0.6030
 7237SOL    HW228720   2.751   4.347   0.505  3.6651  0.9165 -0.5412
 7237SOL    HW328721   2.753   4.342   0.353  4.3140  0.9324 -0.5360
 7237SOL    MW428722   2.738   4.385   0.428 -0.5331  0.0210 -0.3877
 7238SOL     OW28723   4.914   3.280   0.623  0.0249  0.4151  0.6743
 7238SOL    HW228724   4.869   3.316   0.700  0.9122 -0.6455  1.7125
 7238SOL    HW328725   4.977   3.218   0.659  0.0092 -0.5864 -0.9570
 7238SOL    MW428726   4.916   3.277   0.638 -0.3026  0.1924 -0.4891
 7239SOL     OW28727   4.363   3.257   0.210 -0.4678 -0.0331  0.5925
 7239SOL    HW228728   4.285   3.291   0.254 -0.6057 -1.9172  1.8851
 7239SOL    HW328729   4.431   3.255   0.278 -0.2652 -1.5891  0.3755
 7239SOL    MW428730   4.362   3.261   0.224  0.1404  0.1982  0.5631
 7240SOL     OW28731   2.328   3.717   5.358 -0.1685  0.4483  0.1456
 7240SOL    HW228732   2.330   3.781   5.286 -0.5775  0.3836  0.0739
 7240SOL    HW328733   2.243   3.730   5.399  0.8116  1.8380  1.8747
 7240SOL    MW428734   2.317   3.727   5.354 -0.2253 -0.6016  0.4181
 7241SOL     OW28735   3.570   5.684   4.191  0.0129 -0.4822 -0.6491
 7241SOL    HW228736   3.489   5.735   4.193  0.8259  0.8660  0.5533
 7241SOL    HW328737   3.636   5.744   4.226  1.5724 -1.4765 -1.7498
 7241SOL    MW428738   3.568   5.699   4.196 -0.2526  0.0277 -0.4689
 7242SOL     OW28739   0.644   3.828   4.414 -0.2087 -0.2243  0.8959
 7242SOL    HW228740   0.708   3.759   4.395 -0.2029  0.2322 -0.8983
 7242SOL    HW328741   0.694   3.895   4.461  0.6500  0.0725 -0.3751
 7242SOL    MW428742   0.659   3.828   4.418 -0.3430  0.2876 -0.2155
 7243SOL     OW28743   5.773   2.703   0.054 -0.4295  0.3828  0.1822
 7243SOL    HW228744   5.739   2.726  -0.033  0.3856 -0.7209 -0.4425
 7243SOL    HW328745   5.838   2.770   0.072 -0.3748  0.4376 -0.2021
 7243SOL    MW428746   5.777   2.715   0.045 -0.2020 -0.2820 -0.0527
 7244SOL     OW28747   1.292   6.125   4.161  0.4336  0.1256  0.0052
 7244SOL    HW228748   1.263   6.043   4.200  2.4229 -0.0204  1.3043
 7244SOL    HW328749   1.292   6.188   4.233  2.1477  0.3862 -0.1835
 7244SOL    MW428750   1.288   6.122   4.175  0.7337 -0.1884  0.1148
 7245SOL     OW28751   1.137   5.337   2.353 -0.0187 -0.8680  0.4475
 7245SOL    HW228752   1.227   5.351   2.321  0.7760 -3.1520  1.4674
 7245SOL    HW328753   1.092   5.296   2.279 -0.2559  0.3456 -0.0910
 7245SOL    MW428754   1.143   5.333   2.339 -0.2419 -0.8685  0.2177
 7246SOL     OW28755   0.830   5.254   2.555  0.1265 -0.0831 -0.2225
 7246SOL    HW228756   0.810   5.163   2.533 -0.6410  0.3106 -1.2320
 7246SOL    HW328757   0.836   5.298   2.471 -0.1646  0.9378  0.2782
 7246SOL    MW428758   0.828   5.248   2.541 -0.1351  0.1979 -0.5275
 7247SOL     OW28759   3.235   6.355   5.810  0.1094 -0.3122  0.0435
 7247SOL    HW228760   3.152   6.323   5.845  0.2848 -0.5930  0.2015
 7247SOL    HW328761   3.210   6.427   5.751 -0.1146  1.3247  2.0113
 7247SOL    MW428762   3.220   6.360   5.807  0.0087  0.3757  0.2083
 7248SOL     OW28763   1.019   0.517   0.337 -0.1824  0.2375 -0.0315
 7248SOL    HW228764   1.082   0.447   0.353 -0.6838  0.1451  1.9046
 7248SOL    HW328765   0.984   0.537   0.424 -0.0620  2.9003 -0.5194
 7248SOL    MW428766   1.023   0.510   0.351  0.7442 -0.3393 -0.5132
 7249SOL     OW28767   0.332   0.834   0.189 -0.2637 -0.0747  0.2706
 7249SOL    HW228768   0.371   0.750   0.209 -0.1996 -0.3671 -0.9585
 7249SOL    HW328769   0.383   0.898   0.239  2.3476 -0.3471 -1.8288
 7249SOL    MW428770   0.344   0.831   0.198  0.3422  0.4033  0.0078
 7250SOL     OW28771   1.288   3.987   4.046 -0.1856 -0.6581 -0.2135
 7250SOL    HW228772   1.294   3.975   3.951  0.7139  2.6936 -0.7159
 7250SOL    HW328773   1.225   4.058   4.057  0.6770 -0.1139  1.5992
 7250SOL    MW428774   1.281   3.995   4.035  0.1057 -0.5946 -0.8345
 7251SOL     OW28775   3.593   5.127   4.693 -0.3841 -0.0183 -0.0341
 7251SOL    HW228776   3.669   5.181   4.673 -1.5150  1.7470  0.2397
 7251SOL    HW328777   3.556   5.106   4.607  0.9836 -1.8315 -0.2342
 7251SOL    MW428778   3.598   5.131   4.679 -0.1766 -0.3982 -0.2040
 7252SOL     OW28779   2.485   5.254   3.076 -0.1992 -0.4857 -0.1971
 7252SOL    HW228780   2.459   5.334   3.122 -0.9036 -1.3739  1.0266
 7252SOL    HW328781   2.487   5.278   2.984 -0.8093  0.8308  0.1148
 7252SOL    MW428782   2.482   5.268   3.070  0.2777 -0.1543  0.2115
 7253SOL     OW28783   2.288   0.517   0.221  0.1409 -0.3988 -0.5316
 7253SOL    HW228784   2.355   0.551   0.280 -2.1150 -0.1284  2.0503
 7253SOL    HW328785   2.303   0.423   0.219  1.3725 -0.2042 -1.0602
 7253SOL    MW428786   2.299   0.509   0.228 -0.1032  0.4398  0.6873
 7254SOL     OW28787   3.321   4.626   0.470 -0.5355  0.3175  0.3909
 7254SOL    HW228788   3.328   4.597   0.379 -0.2518  1.1337  0.1518
 7254SOL    HW328789   3.408   4.660   0.492 -0.6241  0.2069  0.9422
 7254SOL    MW428790   3.333   4.626   0.461  0.5802  0.1902 -0.4331
 7255SOL     OW28791   2.094   2.662   3.082  0.0645  0.9100 -0.0305
 7255SOL    HW228792   2.085   2.722   3.008  1.7967  0.6346 -0.5074
 7255SOL    HW328793   2.188   2.657   3.098  0.1576 -2.7105 -0.8975
 7255SOL    MW428794   2.105   2.669   3.075  0.3112 -0.1354  0.2524
 7256SOL     OW28795   6.031   3.927   0.482  0.4438  0.0916 -0.1294
 7256SOL    HW228796   5.964   3.863   0.458  1.1344 -0.4160 -0.7316
 7256SOL    HW328797   6.091   3.880   0.540 -1.0299  1.2188  2.4952
 7256SOL    MW428798   6.030   3.913   0.487  0.1504 -0.1101 -0.4242
 7257SOL     OW28799   4.067   4.994   4.352  0.0832 -0.3954  0.2551
 7257SOL    HW228800   4.150   4.981   4.306 -0.1099  0.6044 -0.3993
 7257SOL    HW328801   4.049   5.088   4.343 -1.0800 -0.5851  0.4592
 7257SOL    MW428802   4.076   5.005   4.345  0.1925  1.0763 -0.0785
 7258SOL     OW28803   0.302   0.144   4.615  0.3361  0.0639  0.3291
 7258SOL    HW228804   0.343   0.172   4.533  1.6083 -0.7863  0.6429
 7258SOL    HW328805   0.344   0.198   4.682 -1.3674  1.4138  0.3649
 7258SOL    MW428806   0.313   0.155   4.613  0.4086 -0.3640 -0.6104
 7259SOL     OW28807   4.495   4.335   5.770  0.0955  0.4604 -0.0144
 7259SOL    HW228808   4.502   4.255   5.822 -1.1505  2.4517  3.5749
 7259SOL    HW328809   4.446   4.309   5.692  2.5844 -2.8511 -0.6988
 7259SOL    MW428810   4.490   4.321   5.766  0.2689 -0.4585  0.3037
 7260SOL     OW28811   4.502   1.674   5.974 -0.1144 -0.1419 -0.5784
 7260SOL    HW228812   4.530   1.703   5.887  0.3071  1.5678  0.0982
 7260SOL    HW328813   4.584   1.653   6.019 -0.1694  0.9960  0.0774
 7260SOL    MW428814   4.517   1.675   5.968  0.5716 -0.1116  0.4128
 7261SOL     OW28815   2.436   4.326   3.386  0.3919  0.2273 -0.0482
 7261SOL    HW228816   2.360   4.311   3.443  1.1200  0.3711  0.9995
 7261SOL    HW328817   2.470   4.238   3.368  1.2662  0.2564  1.3259
 7261SOL    MW428818   2.430   4.312   3.391  0.1494 -0.4463  0.0771
 7262SOL     OW28819   3.581   1.501   5.495 -0.4980  0.5959 -0.0785
 7262SOL    HW228820   3.607   1.409   5.502 -0.6360  0.5271 -0.4493
 7262SOL    HW328821   3.640   1.547   5.554 -1.4984  0.0739  1.3644
 7262SOL    MW428822   3.593   1.495   5.503 -0.1077  0.5567  0.0700
 7263SOL     OW28823   5.227   0.491   2.206 -0.0085 -0.1516  0.3432
 7263SOL    HW228824   5.168   0.438   2.152 -0.5990  0.4236  0.4073
 7263SOL    HW328825   5.286   0.532   2.143 -0.6986  0.5208  0.1172
 7263SOL    MW428826   5.227   0.489   2.190 -0.6876 -0.2800  0.5001
 7264SOL     OW28827   0.374   2.210   3.055 -0.2258  0.0790  1.0509
 7264SOL    HW228828   0.424   2.130   3.045 -0.2211  0.1560  0.4099
 7264SOL    HW328829   0.283   2.181   3.063 -0.3785  0.0499 -0.4739
 7264SOL    MW428830   0.368   2.196   3.055  0.7013  0.3039  0.1398
 7265SOL     OW28831   4.933   4.252   1.278 -0.3897  0.0872  0.5401
 7265SOL    HW228832   5.013   4.293   1.311 -0.3717  1.1433 -0.7167
 7265SOL    HW328833   4.867   4.271   1.345  0.4336 -0.9892  1.6930
 7265SOL    MW428834   4.934   4.260   1.291  0.4786 -0.0004 -0.3832
 7266SOL     OW28835   4.607   5.236   6.392 -0.6235 -0.5023  0.6163
 7266SOL    HW228836   4.664   5.234   6.315 -0.2738  1.3627  0.7921
 7266SOL    HW328837   4.553   5.158   6.383 -0.1380 -0.6798 -1.1722
 7266SOL    MW428838   4.608   5.225   6.381 -0.6087 -0.4303  0.3792
 7267SOL     OW28839   0.418   6.402   2.305  0.1118 -0.4593 -0.3055
 7267SOL    HW228840   0.488   6.396   2.371 -0.3529  0.3822  0.2986
 7267SOL    HW328841   0.385   6.492   2.315 -2.7161 -1.5442  1.1547
 7267SOL    MW428842   0.423   6.413   2.315 -0.4550  0.2372 -0.3741
 7268SOL     OW28843   4.277   3.804   3.222  0.2022 -0.4670  0.1106
 7268SOL    HW228844   4.232   3.727   3.257 -1.5187  0.3775 -0.1219
 7268SOL    HW328845   4.257   3.803   3.129  0.7083 -0.0782 -0.0094
 7268SOL    MW428846   4.268   3.793   3.214 -0.1988 -0.0046  0.5880
 7269SOL     OW28847   4.548   5.949   3.501 -0.1367  0.2112  0.0655
 7269SOL    HW228848   4.578   5.883   3.564 -0.5167  0.6495  0.7152
 7269SOL    HW328849   4.572   6.032   3.540 -0.4716  0.4965 -0.3277
 7269SOL    MW428850   4.555   5.951   3.514 -0.0118  0.0043 -0.1951
 7270SOL     OW28851   1.895   2.507   5.398  0.4486  0.3648 -0.1291
 7270SOL    HW228852   1.930   2.474   5.481 -0.6374 -1.2933 -0.2766
 7270SOL    HW328853   1.963   2.487   5.334  0.3744 -0.4135  0.0166
 7270SOL    MW428854   1.908   2.500   5.401  0.3764 -0.1372 -0.3265
 7271SOL     OW28855   2.546   1.862   2.929 -0.4730 -0.4320  0.2640
 7271SOL    HW228856   2.556   1.938   2.871 -2.7161 -1.3700 -1.4833
 7271SOL    HW328857   2.585   1.891   3.012  0.2916  1.9883 -0.8220
 7271SOL    MW428858   2.553   1.876   2.933 -0.0255  0.0618 -0.1470
 7272SOL     OW28859   6.182   5.572   1.872  0.0160 -0.0512  0.0725
 7272SOL    HW228860   6.226   5.611   1.948 -1.2649  0.6347  0.4904
 7272SOL    HW328861   6.107   5.526   1.909 -0.1953 -0.3520 -0.7142
 7272SOL    MW428862   6.178   5.571   1.887  0.2671 -0.0504 -0.6167
 7273SOL     OW28863   3.904   5.371   0.710 -0.1694  0.0990 -0.1691
 7273SOL    HW228864   3.991   5.402   0.687 -0.6319 -0.0116 -2.3186
 7273SOL    HW328865   3.882   5.417   0.792  1.3998  1.0484 -0.2536
 7273SOL    MW428866   3.912   5.381   0.718  0.2741 -0.0520  0.0110
 7274SOL     OW28867   5.494   4.650   2.611 -0.2394 -0.0724  0.7368
 7274SOL    HW228868   5.405   4.618   2.597  0.7724 -3.7414  1.5789
 7274SOL    HW328869   5.521   4.613   2.695  2.7456 -0.9620 -0.4524
 7274SOL    MW428870   5.486   4.641   2.620  0.8048  0.1196 -0.1339
 7275SOL     OW28871   5.139   1.018   2.420  0.8365  0.2052  0.4985
 7275SOL    HW228872   5.080   0.987   2.489  0.5850 -0.7310 -0.1202
 7275SOL    HW328873   5.118   0.965   2.344 -0.1464  2.4173 -0.8708
 7275SOL    MW428874   5.129   1.007   2.419  0.3064 -0.1594  0.6560
 7276SOL     OW28875   4.778   3.277   1.303 -0.8678  0.3575 -0.2979
 7276SOL    HW228876   4.788   3.358   1.254  0.0931  1.3373  1.4472
 7276SOL    HW328877   4.699   3.290   1.356 -1.1320 -0.1553 -0.5559
 7276SOL    MW428878   4.769   3.289   1.303  0.3336 -0.1244  0.0356
 7277SOL     OW28879   3.898   2.342   6.279  0.0969  0.2088 -0.3406
 7277SOL    HW228880   3.844   2.398   6.223 -1.7066 -1.3771 -0.2959
 7277SOL    HW328881   3.986   2.378   6.272 -0.9148  2.8650 -0.5075
 7277SOL    MW428882   3.903   2.354   6.271 -0.0710 -0.6246 -0.2745
 7278SOL     OW28883   1.671   2.645   0.519 -0.2974  0.5098  0.0642
 7278SOL    HW228884   1.641   2.554   0.520 -0.6176  0.6173  0.9420
 7278SOL    HW328885   1.593   2.696   0.496 -0.4855  0.6776  1.0340
 7278SOL    MW428886   1.656   2.639   0.516  0.0840  0.0269 -0.0688
 7279SOL     OW28887   4.366   5.752   0.270  0.3323  0.0324  0.4437
 7279SOL    HW228888   4.428   5.683   0.247  0.8213  0.7256 -0.3826
 7279SOL    HW328889   4.281   5.709   0.271  0.6046 -0.5431 -0.2843
 7279SOL    MW428890   4.363   5.738   0.267  0.1652  0.5110 -0.0742
 7280SOL     OW28891   3.070   3.986   1.473  0.2928 -0.3918 -0.9604
 7280SOL    HW228892   3.089   4.068   1.428  0.9724  1.2685  2.0833
 7280SOL    HW328893   2.978   3.993   1.498  0.9641  0.7072  1.4802
 7280SOL    MW428894   3.061   3.998   1.470  0.1161  0.5939 -0.0489
 7281SOL     OW28895   2.982   2.244   2.979  0.1173  0.6414  0.1379
 7281SOL    HW228896   2.919   2.224   2.910  0.3212 -0.4873  0.2574
 7281SOL    HW328897   2.928   2.265   3.055 -0.1640 -1.1016  0.4644
 7281SOL    MW428898   2.966   2.244   2.980  0.5198  0.2232 -0.6164
 7282SOL     OW28899   0.267   3.332   3.400 -0.4162 -0.0992  0.7916
 7282SOL    HW228900   0.362   3.328   3.406 -0.1913  0.4784 -1.5264
 7282SOL    HW328901   0.247   3.425   3.404 -0.7334 -0.1168 -0.1234
 7282SOL    MW428902   0.277   3.344   3.401 -0.2514  0.3262 -0.3344
 7283SOL     OW28903   5.828   0.199   5.286  0.4121 -0.3970 -0.2178
 7283SOL    HW228904   5.778   0.132   5.240  0.7773 -0.8956  0.0980
 7283SOL    HW328905   5.915   0.196   5.246 -0.1930  1.5387 -1.8427
 7283SOL    MW428906   5.833   0.190   5.275 -0.4145  0.2131  0.0079
 7284SOL     OW28907   5.347   6.059   0.429  0.5536  0.0705  0.2350
 7284SOL    HW228908   5.330   6.029   0.340 -1.4164 -1.5597  1.0847
 7284SOL    HW328909   5.372   6.150   0.419  1.1303 -0.2821 -2.0365
 7284SOL    MW428910   5.348   6.067   0.416  0.5785 -0.0182  0.4568
 7285SOL     OW28911   2.375   2.623   3.074 -0.1818  0.3328 -0.5245
 7285SOL    HW228912   2.345   2.533   3.062 -0.7702  0.2747  1.1197
 7285SOL    HW328913   2.410   2.648   2.989  0.5514 -1.6446 -0.8656
 7285SOL    MW428914   2.375   2.614   3.061  0.3681  0.0068  0.1713
 7286SOL     OW28915   5.468   2.710   4.605 -0.2180 -0.4327 -0.4455
 7286SOL    HW228916   5.537   2.659   4.561  0.3305 -0.4435  0.3880
 7286SOL    HW328917   5.442   2.655   4.679 -1.6267 -0.7300 -1.1339
 7286SOL    MW428918   5.474   2.696   4.609 -0.1659 -0.3547 -0.2893
 7287SOL     OW28919   3.734   0.644   4.890  0.0573 -0.1405  0.5244
 7287SOL    HW228920   3.779   0.602   4.963  0.5567  0.5579  0.6388
 7287SOL    HW328921   3.645   0.609   4.892  0.2965 -0.7336  0.9628
 7287SOL    MW428922   3.729   0.634   4.900  0.2638  0.0481 -0.0023
 7288SOL     OW28923   1.750   5.707   5.985 -0.3256 -0.5147 -0.3418
 7288SOL    HW228924   1.819   5.724   6.048  0.6451 -0.4602 -1.3739
 7288SOL    HW328925   1.770   5.764   5.911 -2.3472  0.6198 -0.0864
 7288SOL    MW428926   1.762   5.717   5.983 -0.6411 -0.0238 -0.1199
 7289SOL     OW28927   0.972   5.202   6.312  0.3389 -0.4331  0.0898
 7289SOL    HW228928   0.926   5.276   6.350  0.3766 -0.1269 -0.4500
 7289SOL    HW328929   0.981   5.224   6.219 -0.2668 -1.4310 -0.2174
 7289SOL    MW428930   0.967   5.215   6.305 -0.6734  0.2619  0.5172
 7290SOL     OW28931   2.172   6.095   6.074 -0.2779  0.1194 -0.1406
 7290SOL    HW228932   2.209   6.176   6.108 -0.3394  0.5715 -1.1233
 7290SOL    HW328933   2.143   6.116   5.985  1.1950 -1.3713 -1.0493
 7290SOL    MW428934   2.173   6.108   6.066 -0.0866  0.0717 -0.2646
 7291SOL     OW28935   5.742   2.280   3.554 -0.1829 -0.5234  0.5315
 7291SOL    HW228936   5.821   2.277   3.500  0.1701  0.3463  0.9847
 7291SOL    HW328937   5.705   2.193   3.546 -1.3606  0.1475 -2.9058
 7291SOL    MW428938   5.748   2.268   3.546 -0.3834  0.3574  0.2566
 7292SOL     OW28939   1.392   0.790   0.748 -0.1478 -0.1847  0.0438
 7292SOL    HW228940   1.335   0.823   0.817 -0.4786  1.6220 -1.0077
 7292SOL    HW328941   1.344   0.807   0.667  0.3630 -1.9315 -0.6780
 7292SOL    MW428942   1.378   0.797   0.746 -0.2204 -0.1895 -0.1449
 7293SOL     OW28943   0.823   3.028   2.156 -0.2914  0.5813  0.5141
 7293SOL    HW228944   0.890   2.972   2.117 -1.2357  0.2000 -0.6264
 7293SOL    HW328945   0.842   3.115   2.124 -0.9748  0.2916 -0.7354
 7293SOL    MW428946   0.834   3.032   2.147 -0.0778  0.7647  0.7866
 7294SOL     OW28947   1.662   3.876   1.263  0.0185  0.0193  0.5195
 7294SOL    HW228948   1.677   3.965   1.232  1.6268 -0.0560  0.9677
 7294SOL    HW328949   1.568   3.870   1.278 -0.1597  1.5024  0.0851
 7294SOL    MW428950   1.652   3.887   1.261 -0.2351  0.2325 -0.6932
 7295SOL     OW28951   3.592   3.364   4.399  0.3741 -0.0403 -0.4762
 7295SOL    HW228952   3.531   3.315   4.344  1.2646 -2.0348  0.2350
 7295SOL    HW328953   3.543   3.443   4.423 -1.3297 -0.8012 -1.2186
 7295SOL    MW428954   3.577   3.368   4.395 -0.5393  0.2557 -0.6454
 7296SOL     OW28955   0.626   3.148   2.550  0.5225 -0.1192  0.4947
 7296SOL    HW228956   0.667   3.067   2.519 -0.9489 -0.2763 -1.2296
 7296SOL    HW328957   0.614   3.134   2.644 -0.2587 -2.2082  0.1493
 7296SOL    MW428958   0.630   3.135   2.558  0.3323 -0.5966  0.3326
 7297SOL     OW28959   4.268   4.266   5.644 -0.3155 -0.7436 -0.2272
 7297SOL    HW228960   4.235   4.247   5.732  1.2702 -1.7039  0.2090
 7297SOL    HW328961   4.207   4.331   5.609 -1.5408 -1.0551  1.2006
 7297SOL    MW428962   4.255   4.272   5.651  0.4120 -0.1840  0.1515
 7298SOL     OW28963   4.467   4.921   5.413 -0.0635  0.5710  0.2133
 7298SOL    HW228964   4.520   4.845   5.438 -1.3682 -0.5041 -0.1643
 7298SOL    HW328965   4.425   4.895   5.331 -2.5268  0.6744  1.3640
 7298SOL    MW428966   4.469   4.908   5.406  0.2872 -0.5320 -0.4187
 7299SOL     OW28967   3.273   0.606   5.096  0.4810  0.1815 -0.6735
 7299SOL    HW228968   3.277   0.693   5.137 -0.3695 -0.1044  0.0558
 7299SOL    HW328969   3.184   0.601   5.062  0.5129 -0.4188 -0.6708
 7299SOL    MW428970   3.262   0.617   5.097  0.0789 -0.1708 -0.4276
 7300SOL     OW28971   1.712   1.008   0.095 -0.2631  0.1860 -0.3680
 7300SOL    HW228972   1.762   1.036   0.172  2.0300  0.9978 -2.0195
 7300SOL    HW328973   1.689   0.917   0.112 -2.3428  1.0954  2.4413
 7300SOL    MW428974   1.715   1.000   0.108 -0.0682 -0.0355  0.2463
 7301SOL     OW28975   4.311   3.904   4.912  0.1933 -0.1756  0.0339
 7301SOL    HW228976   4.306   3.931   4.821  0.3751 -0.1501  0.0314
 7301SOL    HW328977   4.246   3.958   4.957 -2.5794 -2.6932 -0.6687
 7301SOL    MW428978   4.302   3.915   4.906 -0.6949  0.6030 -0.0656
 7302SOL     OW28979   4.765   5.525   1.688 -0.2098  0.4609  0.1406
 7302SOL    HW228980   4.859   5.527   1.706 -0.1207 -2.3439  0.3811
 7302SOL    HW328981   4.725   5.512   1.774 -0.7863  1.0544 -0.0347
 7302SOL    MW428982   4.772   5.524   1.702  0.3154 -0.1868 -0.1864
 7303SOL     OW28983   5.916   5.523   3.337  0.0633 -0.0028  0.1415
 7303SOL    HW228984   5.899   5.615   3.361 -0.7689 -0.0408 -0.2810
 7303SOL    HW328985   5.967   5.529   3.256 -0.3951  0.0831 -0.1427
 7303SOL    MW428986   5.920   5.536   3.330  0.0481 -0.5952 -0.4136
 7304SOL     OW28987   3.302   4.178   2.735 -0.2557 -0.1049 -0.4098
 7304SOL    HW228988   3.360   4.156   2.663 -0.0565  1.5163 -0.7840
 7304SOL    HW328989   3.362   4.200   2.807 -0.3710  1.6861 -0.8328
 7304SOL    MW428990   3.318   4.178   2.735 -0.0564  0.3106 -0.5803
 7305SOL     OW28991   3.808   4.122   5.242  0.6653 -0.6024  0.0722
 7305SOL    HW228992   3.721   4.118   5.280  0.2487 -3.1649 -0.8797
 7305SOL    HW328993   3.806   4.197   5.184 -0.6675 -0.1988  0.6065
 7305SOL    MW428994   3.797   4.131   5.239 -0.4081  0.1303 -0.1606
 7306SOL     OW28995   5.707   4.144   0.433  0.5320  0.1590  0.5221
 7306SOL    HW228996   5.632   4.185   0.389  0.9975  2.0968  1.4157
 7306SOL    HW328997   5.747   4.088   0.366 -1.4678 -0.6363 -0.0721
 7306SOL    MW428998   5.703   4.142   0.418 -0.3551 -0.1070  0.3672
 7307SOL     OW28999   4.106   4.716   6.146  0.5499  0.1296 -0.7441
 7307SOL    HW229000   4.035   4.724   6.083  2.0911  1.1420 -2.4390
 7307SOL    HW329001   4.185   4.707   6.093  1.8703  0.6145  1.0378
 7307SOL    MW429002   4.107   4.716   6.131  0.4534 -0.1460  0.4444
 7308SOL     OW29003   4.707   0.712   0.279  0.0306 -0.1745 -0.8076
 7308SOL    HW229004   4.616   0.688   0.264 -0.0249 -0.9141  0.5410
 7308SOL    HW329005   4.702   0.783   0.343  0.4202 -0.5151 -0.4007
 7308SOL    MW429006   4.694   0.718   0.285  0.0312  0.2550 -0.0334
 7309SOL     OW29007   3.140   0.541   5.763  0.0255 -0.2459  0.0055
 7309SOL    HW229008   3.168   0.624   5.801 -0.1810  0.3902 -1.1925
 7309SOL    HW329009   3.174   0.475   5.823  0.6480  0.6767  0.6970
 7309SOL    MW429010   3.148   0.543   5.776 -0.1556  0.0472  0.0050
 7310SOL     OW29011   3.266   1.008   5.393 -0.2292 -0.0603 -0.5978
 7310SOL    HW229012   3.244   1.097   5.367 -1.1665  0.1730  0.8833
 7310SOL    HW329013   3.359   1.011   5.414 -0.5265  0.9157  0.7053
 7310SOL    MW429014   3.276   1.020   5.392 -0.3549 -0.3879 -0.2813
 7311SOL     OW29015   0.413   0.756   6.109 -0.1102  0.1977 -0.0294
 7311SOL    HW229016   0.332   0.790   6.070 -0.4161  0.3866  0.7531
 7311SOL    HW329017   0.391   0.739   6.200  0.7668  0.3491  0.2224
 7311SOL    MW429018   0.399   0.758   6.115 -0.2311  0.1788 -0.2363
 7312SOL     OW29019   3.736   0.163   1.792 -0.5300 -0.5521 -0.2571
 7312SOL    HW229020   3.710   0.073   1.808 -0.1611 -0.5694  0.2536
 7312SOL    HW329021   3.655   0.207   1.765 -0.6556 -1.0930 -0.7836
 7312SOL    MW429022   3.722   0.157   1.790  0.4692  0.2966  0.0918
 7313SOL     OW29023   2.392   3.405   1.883 -0.1765 -0.0157  0.1583
 7313SOL    HW229024   2.333   3.337   1.850 -0.0362 -0.0837  0.0397
 7313SOL    HW329025   2.372   3.412   1.976 -1.4233  1.0462 -0.1789
 7313SOL    MW429026   2.382   3.397   1.891 -0.2002 -0.1650  0.5384
 7314SOL     OW29027   4.537   1.254   5.160 -0.0723 -0.3310  0.7342
 7314SOL    HW229028   4.490   1.337   5.148  0.4721 -0.1803 -0.5918
 7314SOL    HW329029   4.562   1.254   5.252 -2.0180 -0.0863  1.3026
 7314SOL    MW429030   4.534   1.265   5.170  0.2430 -0.4975 -0.0765
 7315SOL     OW29031   1.391   1.397   2.463  0.1917 -0.1764  0.2038
 7315SOL    HW229032   1.339   1.390   2.383 -0.4152  0.2603  0.5518
 7315SOL    HW329033   1.442   1.477   2.451  1.4519 -1.0448 -0.5049
 7315SOL    MW429034   1.391   1.407   2.451 -0.2158 -0.1465 -0.2276
 7316SOL     OW29035   3.285   3.700   0.301  0.1136 -0.8574 -0.3101
 7316SOL    HW229036   3.199   3.663   0.319 -0.5724  0.5881 -0.5038
 7316SOL    HW329037   3.286   3.715   0.206  0.7122 -1.1705 -0.3606
 7316SOL    MW429038   3.274   3.697   0.291 -0.6422  0.2314  0.0227
 7317SOL     OW29039   5.969   0.740   4.315 -0.0949  0.1238  0.0015
 7317SOL    HW229040   6.003   0.659   4.277  0.6998  1.5260 -2.5338
 7317SOL    HW329041   5.896   0.764   4.259 -0.6995  0.8795  1.0696
 7317SOL    MW429042   5.964   0.732   4.303 -0.3760  0.0496 -0.7982
 7318SOL     OW29043   3.684   2.159   0.348  0.2880  0.5558 -0.2110
 7318SOL    HW229044   3.654   2.250   0.351  0.7425  0.7007  0.0342
 7318SOL    HW329045   3.720   2.148   0.260  1.5974  1.0633  0.2406
 7318SOL    MW429046   3.684   2.169   0.337 -0.6122 -0.2756 -0.0679
 7319SOL     OW29047   4.374   2.016   2.222 -0.5247  0.0823 -0.0078
 7319SOL    HW229048   4.402   1.947   2.162  1.1734  0.0185  0.7770
 7319SOL    HW329049   4.279   2.013   2.221 -0.5191 -2.6922  0.4241
 7319SOL    MW429050   4.365   2.006   2.214  0.1447  0.2525 -0.6421
 7320SOL     OW29051   3.059   4.230   0.441  0.4018  0.2699 -0.1934
 7320SOL    HW229052   3.141   4.231   0.491  0.7742 -0.5021 -0.7787
 7320SOL    HW329053   3.086   4.245   0.351  0.2249 -2.4488 -0.7930
 7320SOL    MW429054   3.074   4.232   0.436 -0.5072 -0.2502 -0.0866
 7321SOL     OW29055   2.273   4.000   4.398  0.1134 -0.7034 -0.1355
 7321SOL    HW229056   2.251   4.028   4.487  0.5842  0.0418 -0.2455
 7321SOL    HW329057   2.213   4.050   4.342  3.0331  2.7217 -0.5784
 7321SOL    MW429058   2.262   4.011   4.403  0.4124 -0.2744  0.7911
 7322SOL     OW29059   1.828   5.082   6.080  0.3969  0.0339  0.1700
 7322SOL    HW229060   1.788   5.001   6.111  1.8467 -0.2747  1.3285
 7322SOL    HW329061   1.832   5.071   5.985 -1.2101 -0.3817  0.1199
 7322SOL    MW429062   1.824   5.070   6.071 -0.3372 -0.0345  0.0411
 7323SOL     OW29063   5.733   1.230   6.207 -0.1050 -0.1318  0.7321
 7323SOL    HW229064   5.741   1.280   6.126 -2.1769 -0.5863  0.2135
 7323SOL    HW329065   5.640   1.235   6.230 -0.1948 -2.8608  1.2409
 7323SOL    MW429066   5.722   1.238   6.199 -0.9874 -0.3154  0.9201
 7324SOL     OW29067   2.276   4.541   5.999 -0.0993  0.2795 -0.5136
 7324SOL    HW229068   2.213   4.573   6.064  1.0189  0.2155  0.6354
 7324SOL    HW329069   2.268   4.603   5.927 -2.6840 -0.6917 -1.1703
 7324SOL    MW429070   2.267   4.554   5.998 -0.0778  0.3808 -0.0844
 7325SOL     OW29071   2.567   4.820   2.466  0.2973  0.1315 -0.6207
 7325SOL    HW229072   2.538   4.910   2.452 -0.4065 -0.2840 -2.0854
 7325SOL    HW329073   2.644   4.827   2.522  0.1797  1.6314 -0.6283
 7325SOL    MW429074   2.574   4.833   2.471  1.0255  0.3784  0.9437
 7326SOL     OW29075   5.698   3.725   4.803  0.3748  0.6595 -0.3508
 7326SOL    HW229076   5.622   3.668   4.796  0.4590  0.4871  0.1259
 7326SOL    HW329077   5.771   3.673   4.769  0.4471  0.4892  0.0620
 7326SOL    MW429078   5.698   3.711   4.797  0.0398  0.1742  0.2559
 7327SOL     OW29079   2.526   5.229   0.121 -0.0315  0.5615 -0.1293
 7327SOL    HW229080   2.538   5.136   0.102 -0.5676  0.4660 -0.0041
 7327SOL    HW329081   2.615   5.265   0.119  0.0536  0.3309 -1.6764
 7327SOL    MW429082   2.539   5.221   0.118 -0.0784  0.0099 -0.1533
 7328SOL     OW29083   4.285   0.870   3.309  0.2349  0.3078  0.1727
 7328SOL    HW229084   4.246   0.957   3.295  0.6655  0.3974 -0.5364
 7328SOL    HW329085   4.210   0.813   3.326 -0.1102  0.6981 -0.0170
 7328SOL    MW429086   4.270   0.874   3.309  0.0542  0.1290 -0.7017
 7329SOL     OW29087   0.793   5.612   6.115 -0.2904  0.7382  0.7945
 7329SOL    HW229088   0.835   5.682   6.065 -1.6581  0.4065 -0.9368
 7329SOL    HW329089   0.699   5.631   6.107 -0.7990 -2.0421 -1.0196
 7329SOL    MW429090   0.786   5.624   6.107  0.1723 -0.1301 -0.2759
 7330SOL     OW29091   4.926   3.745   4.610  0.5638 -0.0334  0.7047
 7330SOL    HW229092   4.877   3.737   4.692 -0.4569  1.4218  0.2776
 7330SOL    HW329093   4.942   3.654   4.583 -0.5518 -0.5436  1.6576
 7330SOL    MW429094   4.921   3.732   4.617  0.5477 -0.7041 -0.1044
 7331SOL     OW29095   1.819   3.836   1.765 -0.0533  0.2667 -0.8288
 7331SOL    HW229096   1.823   3.861   1.673  0.8108 -1.0213 -1.1701
 7331SOL    HW329097   1.908   3.806   1.786 -0.2967  0.3297  0.3611
 7331SOL    MW429098   1.831   3.835   1.756 -0.1841 -0.5313 -0.0024
 7332SOL     OW29099   4.248   2.445   0.764 -0.2986  0.2854 -0.0378
 7332SOL    HW229100   4.293   2.413   0.842 -2.1501 -4.3632 -0.5370
 7332SOL    HW329101   4.306   2.423   0.692 -0.1386  1.2378 -0.2006
 7332SOL    MW429102   4.261   2.438   0.765 -0.5771  0.4966 -0.2949
 7333SOL     OW29103   1.621   0.076   3.877  0.0536 -0.0302  0.2709
 7333SOL    HW229104   1.702   0.031   3.852 -0.0762  0.0030 -0.2075
 7333SOL    HW329105   1.640   0.112   3.963  0.0847 -1.1965  0.7771
 7333SOL    MW429106   1.634   0.075   3.885 -0.2761 -0.7802 -0.2490
 7334SOL     OW29107   0.203   4.108   1.880  0.5360  0.0028 -0.1117
 7334SOL    HW229108   0.227   4.200   1.892  0.9876 -0.0819 -0.3322
 7334SOL    HW329109   0.127   4.095   1.936  1.3174  0.1491  1.0173
 7334SOL    MW429110   0.196   4.118   1.889  0.1175  0.6234  0.2805
 7335SOL     OW29111   2.449   1.604   5.034  0.5510  0.1866  0.2320
 7335SOL    HW229112   2.367   1.619   5.079 -1.0134 -1.1963 -1.9440
 7335SOL    HW329113   2.476   1.691   5.004 -1.1811  0.4611 -0.6681
 7335SOL    MW429114   2.442   1.617   5.036  0.3190  0.1306  0.1945
 7336SOL     OW29115   6.360   4.165   2.833  0.6217  0.0710  0.3372
 7336SOL    HW229116   6.400   4.083   2.860 -0.4806 -0.1968  1.2642
 7336SOL    HW329117   6.389   4.229   2.899  1.8444  0.5497 -0.6380
 7336SOL    MW429118   6.369   4.163   2.846 -0.0764 -0.0264  0.3805
 7337SOL     OW29119   0.800   3.887   3.240 -0.2286 -0.0983  0.5798
 7337SOL    HW229120   0.780   3.922   3.153 -1.9905 -3.4537 -0.5652
 7337SOL    HW329121   0.751   3.943   3.300 -1.0861  0.7425 -0.8401
 7337SOL    MW429122   0.791   3.899   3.236 -0.1328 -0.1471  0.0810
 7338SOL     OW29123   2.728   4.847   4.896  0.7647 -0.5513  0.0776
 7338SOL    HW229124   2.650   4.902   4.910  1.6704  0.8978 -0.3688
 7338SOL    HW329125   2.718   4.813   4.807  0.4314 -0.7438  0.1850
 7338SOL    MW429126   2.716   4.850   4.886  0.2799 -0.4819 -0.8272
 7339SOL     OW29127   3.397   4.607   6.378 -0.0020 -0.1951  0.2198
 7339SOL    HW229128   3.403   4.587   6.471  1.3652 -0.9778 -0.0181
 7339SOL    HW329129   3.331   4.547   6.344  0.3254 -0.7023  0.4769
 7339SOL    MW429130   3.389   4.597   6.386 -0.0110  0.1627 -0.1970
 7340SOL     OW29131   5.598   2.554   5.556 -0.7570  0.0685  0.3852
 7340SOL    HW229132   5.611   2.591   5.469  1.7626 -0.7153  0.3472
 7340SOL    HW329133   5.630   2.622   5.616 -0.3263 -0.2637  0.5430
 7340SOL    MW429134   5.604   2.568   5.552  0.6256  0.2183  0.5099
 7341SOL     OW29135   1.907   3.810   3.982  0.2000 -0.5377 -0.1771
 7341SOL    HW229136   1.828   3.847   4.021  1.1083  0.7086  0.5738
 7341SOL    HW329137   1.886   3.802   3.889 -0.3990  0.9846 -0.2086
 7341SOL    MW429138   1.894   3.814   3.974 -0.2871 -0.2039  0.0192
 7342SOL     OW29139   4.203   2.217   3.044  0.6652  0.0066 -0.1450
 7342SOL    HW229140   4.232   2.259   3.126  1.6667  0.1440 -0.5560
 7342SOL    HW329141   4.284   2.198   2.997  0.1227 -0.5895 -0.8620
 7342SOL    MW429142   4.217   2.220   3.049 -0.2078  0.4145  0.0776
 7343SOL     OW29143   4.348   2.609   0.482 -0.3818 -0.2651 -0.1113
 7343SOL    HW229144   4.344   2.693   0.528 -0.1584 -1.0113  1.3150
 7343SOL    HW329145   4.332   2.632   0.390 -1.7274  1.1798  0.4218
 7343SOL    MW429146   4.345   2.623   0.476 -0.1402  0.1752  0.8280
 7344SOL     OW29147   0.556   0.324   5.369 -0.3978  0.2162 -0.2705
 7344SOL    HW229148   0.495   0.253   5.346  0.2974 -0.0045 -1.5289
 7344SOL    HW329149   0.643   0.288   5.349  0.0357  1.0858  0.0118
 7344SOL    MW429150   0.559   0.310   5.364  0.3966  0.2541 -0.0359
 7345SOL     OW29151   2.500   0.500   6.246 -0.5791  0.2044  0.5833
 7345SOL    HW229152   2.416   0.478   6.206 -0.3117  0.5889 -0.1919
 7345SOL    HW329153   2.506   0.595   6.239 -0.2188  0.2100  0.9202
 7345SOL    MW429154   2.490   0.510   6.240 -0.0501  0.1626 -0.4683
 7346SOL     OW29155   3.261   0.493   1.090  0.4568  0.3988  0.2882
 7346SOL    HW229156   3.283   0.582   1.119  2.4598  0.0463  0.0099
 7346SOL    HW329157   3.284   0.492   0.997 -0.6340 -0.0963  0.0123
 7346SOL    MW429158   3.267   0.505   1.082  1.0593  0.0492  0.0556
 7347SOL     OW29159   3.163   4.034   4.523 -0.1418 -0.6680  0.7209
 7347SOL    HW229160   3.255   4.017   4.539  0.6179  1.9404 -0.3751
 7347SOL    HW329161   3.161   4.083   4.441 -2.4259  0.0084  1.0924
 7347SOL    MW429162   3.175   4.038   4.514  0.4042  0.2072 -0.2756
 7348SOL     OW29163   1.002   4.137   1.916  0.8861  0.8849 -0.8049
 7348SOL    HW229164   0.983   4.132   1.823 -1.0796  1.2410 -0.4593
 7348SOL    HW329165   1.069   4.069   1.930 -0.3173 -0.6552 -2.1107
 7348SOL    MW429166   1.008   4.127   1.906  0.1576  0.0424 -0.0473
 7349SOL     OW29167   4.941   5.543   4.315 -0.0544 -0.2258 -0.5011
 7349SOL    HW229168   4.963   5.585   4.399  0.9931 -0.7183 -0.5143
 7349SOL    HW329169   4.849   5.517   4.325 -0.0115 -0.0699  0.4051
 7349SOL    MW429170   4.932   5.545   4.328  0.0896 -0.4127 -0.5517
 7350SOL     OW29171   1.809   5.118   0.218  0.2536 -0.2512 -0.1509
 7350SOL    HW229172   1.757   5.095   0.295  0.5628 -0.7441 -0.0907
 7350SOL    HW329173   1.744   5.149   0.155  0.0995  1.3676  0.7320
 7350SOL    MW429174   1.793   5.119   0.220  0.2802  0.1739  0.7381
 7351SOL     OW29175   4.524   3.620   0.594 -0.1587 -0.2154  0.4450
 7351SOL    HW229176   4.540   3.618   0.499  2.0161 -0.3724  0.7651
 7351SOL    HW329177   4.526   3.528   0.620 -1.1619 -0.2028  0.6185
 7351SOL    MW429178   4.526   3.607   0.585 -0.5723  0.6247  0.3192
 7352SOL     OW29179   2.361   0.154   1.526 -1.0400 -0.6248  0.3465
 7352SOL    HW229180   2.388   0.213   1.596 -1.3937 -1.5896  1.3369
 7352SOL    HW329181   2.272   0.129   1.549 -0.7921 -1.7850  0.1462
 7352SOL    MW429182   2.353   0.158   1.538 -0.2274  0.0361  0.2223
 7353SOL     OW29183   4.338   3.970   4.645  0.1436  0.3264  0.3606
 7353SOL    HW229184   4.343   3.891   4.592  1.2378  1.2050 -0.9216
 7353SOL    HW329185   4.411   4.024   4.614 -1.3602  2.3965  0.2537
 7353SOL    MW429186   4.349   3.967   4.634 -0.1503 -0.3170 -0.0247
 7354SOL     OW29187   0.958   6.063   2.425 -0.1214  0.7777 -0.2365
 7354SOL    HW229188   0.888   6.101   2.478  0.2045  0.7587  0.2196
 7354SOL    HW329189   1.033   6.119   2.441 -0.1588  1.0933 -1.1212
 7354SOL    MW429190   0.958   6.075   2.434  0.1484 -0.3906 -0.1976
 7355SOL     OW29191   1.710   2.705   5.451  0.3844 -0.4079 -0.8678
 7355SOL    HW229192   1.770   2.633   5.431 -0.4298 -1.2538 -0.3752
 7355SOL    HW329193   1.624   2.673   5.421  0.0978  0.5780 -1.1256
 7355SOL    MW429194   1.706   2.691   5.445 -0.2898  0.5466  0.6269
 7356SOL     OW29195   0.655   2.587   5.278 -0.4902 -0.1219 -0.9542
 7356SOL    HW229196   0.608   2.669   5.271  0.6204  0.6000 -0.2516
 7356SOL    HW329197   0.613   2.540   5.350  0.1700  0.7436  0.0218
 7356SOL    MW429198   0.644   2.592   5.286 -0.5120  0.6225 -0.0358
 7357SOL     OW29199   3.011   1.114   5.629 -1.3933  0.1580  0.6612
 7357SOL    HW229200   3.062   1.186   5.590 -1.6458 -0.5139 -1.0281
 7357SOL    HW329201   2.923   1.149   5.638 -1.4285  0.2064  0.1927
 7357SOL    MW429202   3.006   1.128   5.625  0.2989 -0.4998  0.0249
 7358SOL     OW29203   2.876   4.073   0.848 -0.5494 -0.0209 -0.1141
 7358SOL    HW229204   2.935   4.005   0.879 -1.4429 -0.5898  0.3479
 7358SOL    HW329205   2.904   4.152   0.895 -0.6606 -0.4566  0.7012
 7358SOL    MW429206   2.887   4.075   0.858 -0.3606  0.4590 -0.4293
 7359SOL     OW29207   5.172   5.354   6.004  0.0299 -0.3991  0.1480
 7359SOL    HW229208   5.205   5.337   5.916  0.0188 -3.6806  0.6555
 7359SOL    HW329209   5.234   5.310   6.062 -0.6358  0.6330  1.7112
 7359SOL    MW429210   5.185   5.346   6.000 -0.0736  0.2622  0.3945
 7360SOL     OW29211   5.350   5.741   4.445  0.0007 -0.3743 -0.2909
 7360SOL    HW229212   5.296   5.806   4.490 -0.9920 -2.6395  2.0161
 7360SOL    HW329213   5.393   5.693   4.515  1.9343 -1.2317 -1.9738
 7360SOL    MW429214   5.348   5.743   4.460  0.3117 -0.4893  0.5264
 7361SOL     OW29215   1.717   3.611   1.481 -0.1817 -0.4073  0.0674
 7361SOL    HW229216   1.799   3.660   1.488 -0.7847  1.4395 -3.1852
 7361SOL    HW329217   1.656   3.657   1.538  0.2492  0.2653 -0.0065
 7361SOL    MW429218   1.720   3.624   1.489 -0.1916  0.0935  0.2492
 7362SOL     OW29219   0.997   5.368   2.967 -0.6283  0.2945 -0.2191
 7362SOL    HW229220   0.903   5.358   2.953 -0.5946  0.3888 -0.5284
 7362SOL    HW329221   1.011   5.463   2.966 -0.6069  0.3009  0.3597
 7362SOL    MW429222   0.987   5.379   2.965 -0.0314 -0.7515  0.7177
 7363SOL     OW29223   4.060   0.347   5.580 -0.2104 -0.2401  0.1756
 7363SOL    HW229224   3.999   0.301   5.522  0.5539 -1.1903  0.1072
 7363SOL    HW329225   4.084   0.282   5.646  0.8619  0.0673  0.1056
 7363SOL    MW429226   4.055   0.332   5.581 -0.2594  0.0976 -0.1699
 7364SOL     OW29227   3.138   3.968   3.574  0.0650  0.3228 -0.3895
 7364SOL    HW229228   3.110   3.918   3.651  1.1779 -1.1749 -0.8957
 7364SOL    HW329229   3.174   4.049   3.609  1.4073 -0.7327  0.7625
 7364SOL    MW429230   3.139   3.972   3.589  0.4322 -0.3736 -0.1161
 7365SOL     OW29231   5.762   3.460   2.689  0.1993  0.2186 -0.3069
 7365SOL    HW229232   5.700   3.425   2.753  0.3370  1.3370  0.4709
 7365SOL    HW329233   5.847   3.454   2.733  0.1397  2.2103  0.2143
 7365SOL    MW429234   5.765   3.455   2.703  0.7278  0.0801  0.0416
 7366SOL     OW29235   0.565   0.202   5.905 -0.3926 -0.0378 -0.3007
 7366SOL    HW229236   0.582   0.131   5.967 -0.0820 -0.6573 -1.0854
 7366SOL    HW329237   0.470   0.216   5.909 -0.4951 -0.7099 -0.3708
 7366SOL    MW429238   0.555   0.195   5.914  0.3980  0.3369 -0.0978
 7367SOL     OW29239   3.592   5.504   1.504 -0.0741 -0.0204  0.3131
 7367SOL    HW229240   3.611   5.434   1.442 -0.6733 -0.7179  0.8952
 7367SOL    HW329241   3.512   5.545   1.471 -0.5129 -0.5313  0.7389
 7367SOL    MW429242   3.584   5.500   1.492 -0.5232 -0.0474  0.3258
 7368SOL     OW29243   4.768   2.851   4.764 -0.2674  0.0902  0.0432
 7368SOL    HW229244   4.709   2.914   4.803  0.5133 -0.0728  1.5875
 7368SOL    HW329245   4.711   2.790   4.718 -1.2271  0.4866  0.6712
 7368SOL    MW429246   4.753   2.851   4.763  0.1622  0.2902  0.1140
 7369SOL     OW29247   1.317   2.375   5.487 -0.4297 -0.0741 -0.0675
 7369SOL    HW229248   1.275   2.395   5.571  1.4180  0.6640  0.7445
 7369SOL    HW329249   1.389   2.316   5.511 -0.4642 -0.6357 -1.2921
 7369SOL    MW429250   1.321   2.370   5.501  0.0347 -0.2133 -0.3327
 7370SOL     OW29251   2.076   3.527   5.190  0.1869 -0.1075 -0.1841
 7370SOL    HW229252   2.000   3.583   5.207  0.2420 -0.0786 -0.0272
 7370SOL    HW329253   2.132   3.579   5.133  0.0050 -0.2006 -0.4522
 7370SOL    MW429254   2.073   3.541   5.185  0.5316 -0.0376  0.0723
 7371SOL     OW29255   0.703   1.179   0.786 -0.8858  0.4204  0.0680
 7371SOL    HW229256   0.644   1.122   0.736 -0.6987  0.9742 -0.8023
 7371SOL    HW329257   0.717   1.132   0.868 -1.4088 -0.3894 -0.2911
 7371SOL    MW429258   0.697   1.165   0.790 -0.1660 -0.5624  0.1782
 7372SOL     OW29259   4.081   1.206   0.564  0.1100 -0.3289 -0.0181
 7372SOL    HW229260   4.149   1.222   0.629  0.7354 -1.8140 -0.2646
 7372SOL    HW329261   4.116   1.243   0.483  0.1995 -0.2299  0.0652
 7372SOL    MW429262   4.094   1.213   0.562 -0.5039  0.1105  0.1512
 7373SOL     OW29263   4.969   0.968   6.058 -0.1209 -0.5350 -0.2450
 7373SOL    HW229264   4.882   0.929   6.049 -0.0395 -0.5836 -0.9333
 7373SOL    HW329265   4.954   1.062   6.043  0.1082 -0.6929 -1.6025
 7373SOL    MW429266   4.956   0.976   6.055  0.5590 -0.6401 -0.2872
 7374SOL     OW29267   4.581   5.320   2.308 -0.3185  0.2155  0.6164
 7374SOL    HW229268   4.655   5.309   2.248  0.0047  0.8159  0.8932
 7374SOL    HW329269   4.506   5.287   2.259  0.1461 -0.5216  0.3786
 7374SOL    MW429270   4.581   5.314   2.294 -0.2550  0.5459 -0.9938
 7375SOL     OW29271   1.087   6.145   3.962 -0.1819  0.3846 -0.4132
 7375SOL    HW229272   1.172   6.147   4.006 -0.2594  2.0857 -0.2744
 7375SOL    HW329273   1.038   6.216   4.003 -1.4391 -0.1379 -0.9753
 7375SOL    MW429274   1.092   6.155   3.974  0.0897 -0.2725 -0.3783
 7376SOL     OW29275   5.872   3.964   2.188  0.5602 -0.1597 -0.1320
 7376SOL    HW229276   5.819   3.983   2.111  0.6684 -2.9004 -0.9899
 7376SOL    HW329277   5.956   4.006   2.170  0.6304 -0.8518 -1.6432
 7376SOL    MW429278   5.876   3.972   2.175 -0.1129 -0.1505 -0.0429
 7377SOL     OW29279   4.414   2.910   0.026 -0.0778 -0.6292  0.0619
 7377SOL    HW229280   4.400   2.854  -0.051  1.3294 -0.6766 -0.1919
 7377SOL    HW329281   4.483   2.867   0.075 -1.2188 -0.7941  1.5941
 7377SOL    MW429282   4.421   2.897   0.022 -0.4716 -0.1999 -0.1081
 7378SOL     OW29283   4.247   6.061   1.594 -0.4400  0.0743 -0.3838
 7378SOL    HW229284   4.271   6.023   1.678  1.2370  0.8939 -0.4529
 7378SOL    HW329285   4.151   6.058   1.593 -0.6069  1.5348  2.2724
 7378SOL    MW429286   4.238   6.055   1.605 -0.0454  0.6822  0.3035
 7379SOL     OW29287   3.975   0.286   1.379  0.6949 -0.8551 -0.1143
 7379SOL    HW229288   4.071   0.285   1.387  0.6806  0.9038  0.5871
 7379SOL    HW329289   3.944   0.306   1.467 -0.2006  0.8308 -0.7709
 7379SOL    MW429290   3.984   0.289   1.392 -0.1202 -0.3237 -0.5599
 7380SOL     OW29291   5.614   2.740   3.366 -0.3666 -0.5237  0.4202
 7380SOL    HW229292   5.649   2.675   3.426 -1.7052 -0.0892  1.7306
 7380SOL    HW329293   5.590   2.814   3.422 -1.4578 -0.0188 -0.6689
 7380SOL    MW429294   5.615   2.742   3.381  0.0789  0.2563 -0.7696
 7381SOL     OW29295   5.364   2.090   5.699  0.3677  0.4069  0.3198
 7381SOL    HW229296   5.423   2.132   5.762 -1.6633  2.3058  1.0883
 7381SOL    HW329297   5.422   2.049   5.636  2.5203  1.8822  1.2093
 7381SOL    MW429298   5.380   2.090   5.699  0.1046  0.3610  0.2009
 7382SOL     OW29299   3.835   4.533   3.800  0.0651 -0.4666 -0.1279
 7382SOL    HW229300   3.820   4.612   3.748  0.0456 -0.8112 -0.6473
 7382SOL    HW329301   3.840   4.462   3.736  1.2800 -0.7329  0.2189
 7382SOL    MW429302   3.834   4.534   3.785  0.4252  0.0538  0.2164
 7383SOL     OW29303   1.549   0.431   1.839 -0.3404 -0.0727 -0.3742
 7383SOL    HW229304   1.565   0.466   1.752  1.6723 -0.3752 -0.1892
 7383SOL    HW329305   1.567   0.337   1.831  2.1294  0.2004  0.7581
 7383SOL    MW429306   1.554   0.423   1.826  0.2376 -0.8120  0.5402
 7384SOL     OW29307   1.760   1.727   1.162  0.1937 -0.1876 -0.2817
 7384SOL    HW229308   1.703   1.710   1.087 -1.6808  0.4230  0.9331
 7384SOL    HW329309   1.791   1.817   1.148 -0.1316 -0.0811 -0.3218
 7384SOL    MW429310   1.757   1.737   1.150 -0.4250  0.6034  0.2720
 7385SOL     OW29311   3.082   5.400   0.214 -0.4361  0.1419  0.0995
 7385SOL    HW229312   3.160   5.450   0.238  0.0203 -1.7086  2.9438
 7385SOL    HW329313   3.009   5.457   0.239  0.0743 -0.0008  2.1562
 7385SOL    MW429314   3.082   5.414   0.221 -0.9191 -0.2161  0.2311
 7386SOL     OW29315   1.439   4.593   4.590 -0.5351  0.6849 -0.0030
 7386SOL    HW229316   1.359   4.618   4.544 -0.7365 -1.0893 -0.7069
 7386SOL    HW329317   1.453   4.501   4.566  0.6419  0.3780  1.6555
 7386SOL    MW429318   1.431   4.584   4.581  0.3481 -0.2417  0.9304
 7387SOL     OW29319   5.805   4.392   4.640  0.0296  0.3770  0.2826
 7387SOL    HW229320   5.788   4.416   4.731  1.9074 -3.8504  2.0008
 7387SOL    HW329321   5.870   4.455   4.610  0.0878  1.2958  2.1999
 7387SOL    MW429322   5.811   4.403   4.648 -0.3576  0.7442  0.0210
 7388SOL     OW29323   1.623   4.468   5.292  0.3917  0.4314  0.3765
 7388SOL    HW229324   1.530   4.449   5.304  1.1680 -2.3950  3.8465
 7388SOL    HW329325   1.640   4.543   5.349  0.4293  0.1507  0.7400
 7388SOL    MW429326   1.613   4.475   5.301 -0.0360  0.0777  0.4503
 7389SOL     OW29327   4.810   5.427   3.958 -0.6289  0.1818  0.0835
 7389SOL    HW229328   4.828   5.484   3.884 -1.3737  0.6115  0.2290
 7389SOL    HW329329   4.769   5.349   3.918  0.2224 -0.1905 -0.0934
 7389SOL    MW429330   4.807   5.424   3.943 -0.0128 -0.1569 -0.3641
 7390SOL     OW29331   3.702   4.518   0.715  0.4269  0.1885 -0.3777
 7390SOL    HW229332   3.740   4.432   0.696  1.3332  0.5129 -0.1119
 7390SOL    HW329333   3.619   4.518   0.668 -0.0823 -1.2267  0.4660
 7390SOL    MW429334   3.696   4.507   0.706 -0.5165 -0.0531 -0.5803
 7391SOL     OW29335   2.499   0.192   2.179  0.2292 -0.3546  0.6488
 7391SOL    HW229336   2.569   0.137   2.214  2.4521  0.6850 -1.7901
 7391SOL    HW329337   2.470   0.147   2.099 -0.0968  0.4789  0.2834
 7391SOL    MW429338   2.504   0.179   2.173  0.4525  0.4718 -0.4121
 7392SOL     OW29339   0.910   1.325   1.108  0.2348  0.4992  0.2300
 7392SOL    HW229340   0.906   1.306   1.202 -1.9017 -0.1372  0.0716
 7392SOL    HW329341   0.965   1.403   1.101  0.1309  0.7773  2.0436
 7392SOL    MW429342   0.917   1.333   1.120  0.0764  0.0511 -0.4931
 7393SOL     OW29343   3.354   0.382   5.889 -0.0845 -0.2529 -0.6842
 7393SOL    HW229344   3.404   0.372   5.808 -0.0177 -0.2535 -0.6430
 7393SOL    HW329345   3.395   0.456   5.934  0.1169 -0.4930 -0.4734
 7393SOL    MW429346   3.366   0.391   5.885  0.5479  0.2411  0.0263
 7394SOL     OW29347   0.985   0.122   6.073 -0.3913  0.0914 -0.0750
 7394SOL    HW229348   0.956   0.214   6.075 -0.6668 -0.0046  1.1429
 7394SOL    HW329349   0.954   0.086   6.156  0.2933 -0.9337 -0.2536
 7394SOL    MW429350   0.977   0.130   6.085  0.3074 -0.0925  0.4735
 7395SOL     OW29351   0.939   3.927   0.084 -0.9777  0.1787 -0.1324
 7395SOL    HW229352   0.849   3.907   0.113  0.0139 -2.8377  1.2449
 7395SOL    HW329353   0.955   3.867   0.012  0.4665 -0.5364  0.7391
 7395SOL    MW429354   0.929   3.917   0.078 -0.1373  0.5029  0.0177
 7396SOL     OW29355   2.763   2.488   1.149  0.0325 -0.1398 -0.2818
 7396SOL    HW229356   2.696   2.468   1.215  0.3088  2.1260  0.7859
 7396SOL    HW329357   2.717   2.542   1.085  0.2313 -0.7982 -0.9969
 7396SOL    MW429358   2.748   2.492   1.150 -0.0374  0.1813  0.4960
 7397SOL     OW29359   3.647   4.269   2.996 -0.0665 -0.3797 -0.1241
 7397SOL    HW229360   3.690   4.234   2.918 -0.8361  0.4275 -0.9294
 7397SOL    HW329361   3.666   4.362   2.994 -2.2918  0.1006 -0.8152
 7397SOL    MW429362   3.656   4.276   2.986 -0.1316  0.1478  0.2185
 7398SOL     OW29363   1.000   3.687   0.424 -0.0121 -0.7671 -0.1093
 7398SOL    HW229364   1.015   3.776   0.392 -1.4427 -0.6487 -0.5409
 7398SOL    HW329365   0.943   3.699   0.501 -0.5928 -1.3185 -0.4412
 7398SOL    MW429366   0.994   3.701   0.430  0.0183  0.7452 -0.3129
 7399SOL     OW29367   5.099   0.256   5.323  0.3648  0.2573  0.1148
 7399SOL    HW229368   5.118   0.347   5.299 -0.7340  0.3075 -0.6776
 7399SOL    HW329369   5.109   0.207   5.242 -3.1207  0.3758 -0.5381
 7399SOL    MW429370   5.103   0.262   5.309  0.2212 -0.2279  0.1627
 7400SOL     OW29371   2.841   4.658   6.361 -0.6280 -0.3009  0.2813
 7400SOL    HW229372   2.755   4.698   6.356  0.2998  1.6008 -1.7374
 7400SOL    HW329373   2.863   4.635   6.271  0.0085 -3.0412  1.0407
 7400SOL    MW429374   2.833   4.660   6.349  0.1352  0.2833  0.0085
 7401SOL     OW29375   6.026   5.231   2.621  0.5728 -0.3444  0.0863
 7401SOL    HW229376   6.029   5.183   2.704  0.3256  2.4934  1.8538
 7401SOL    HW329377   5.935   5.256   2.610  0.7255 -0.0985 -0.6881
 7401SOL    MW429378   6.015   5.228   2.631  0.3949  0.4808  0.8899
 7402SOL     OW29379   2.111   3.031   2.449 -0.5509  0.2392  0.1865
 7402SOL    HW229380   2.070   3.056   2.531 -1.1224 -0.3328  0.0788
 7402SOL    HW329381   2.095   2.937   2.441  0.5892  0.0438  0.0315
 7402SOL    MW429382   2.104   3.022   2.459  0.2263  0.6465 -0.6304
 7403SOL     OW29383   2.423   3.742   4.820  0.4542  0.2888 -0.5251
 7403SOL    HW229384   2.349   3.693   4.856  2.7020 -3.5101 -0.5808
 7403SOL    HW329385   2.408   3.744   4.726  0.5583 -0.7857 -0.5728
 7403SOL    MW429386   2.411   3.736   4.813  0.3437  0.0740  0.2963
 7404SOL     OW29387   4.390   3.035   1.355  0.1959  0.4329 -0.1851
 7404SOL    HW229388   4.325   3.074   1.414 -1.1699 -2.0816  0.0896
 7404SOL    HW329389   4.450   2.988   1.412  0.3203  0.0283 -0.6398
 7404SOL    MW429390   4.389   3.034   1.370 -0.1713 -0.4046 -0.3126
 7405SOL     OW29391   0.944   4.927   4.742 -0.0695 -0.2182  0.1081
 7405SOL    HW229392   0.964   4.875   4.820 -0.6992 -0.7568 -0.0816
 7405SOL    HW329393   1.019   4.986   4.733  1.2383 -1.8618 -0.3275
 7405SOL    MW429394   0.956   4.928   4.751 -0.5292  0.0481  0.0663
 7406SOL     OW29395   3.787   4.015   0.337 -0.2992  0.1536 -0.5988
 7406SOL    HW229396   3.716   3.966   0.296 -0.6361  0.1966 -0.0840
 7406SOL    HW329397   3.864   3.960   0.328 -0.6197 -0.3587 -0.2607
 7406SOL    MW429398   3.788   4.002   0.331 -0.3663  0.1879  0.1675
 7407SOL     OW29399   5.254   4.847   3.090 -0.4219 -0.7101  0.3044
 7407SOL    HW229400   5.277   4.844   2.997 -1.3763  0.4796  0.0135
 7407SOL    HW329401   5.162   4.872   3.091  0.2569  2.0706  1.6251
 7407SOL    MW429402   5.245   4.850   3.078 -0.3835 -0.3522  0.2492
 7408SOL     OW29403   0.174   2.414   3.564  0.2295 -0.2759  0.2459
 7408SOL    HW229404   0.139   2.494   3.525 -0.3251 -0.5406  0.1864
 7408SOL    HW329405   0.175   2.351   3.492  0.5264 -0.3640  0.3266
 7408SOL    MW429406   0.169   2.416   3.549 -0.2109  0.2733 -0.1286
 7409SOL     OW29407   4.134   4.290   3.438 -0.4877  0.1945 -0.2306
 7409SOL    HW229408   4.094   4.206   3.415 -0.5411 -0.0345  0.6417
 7409SOL    HW329409   4.062   4.340   3.477 -0.0392 -0.0749  0.9946
 7409SOL    MW429410   4.119   4.286   3.440  0.1583  0.2820 -0.0849
 7410SOL     OW29411   0.880   2.039   3.649 -0.2691 -0.5785 -0.0201
 7410SOL    HW229412   0.827   2.092   3.589 -1.3143 -0.8376  0.6386
 7410SOL    HW329413   0.931   1.981   3.592  0.0265  0.3416 -0.7005
 7410SOL    MW429414   0.879   2.038   3.634  0.2220 -0.2695 -0.1434
 7411SOL     OW29415   1.752   1.423   2.367 -0.0292  0.0011 -0.1116
 7411SOL    HW229416   1.688   1.358   2.338  0.9958 -1.2844  0.4450
 7411SOL    HW329417   1.793   1.384   2.444  1.0271  1.0530 -0.1156
 7411SOL    MW429418   1.749   1.409   2.373 -0.8106 -0.3022  0.3882
 7412SOL     OW29419   3.058   3.069   4.628  0.5723 -0.1630  0.3549
 7412SOL    HW229420   2.965   3.081   4.611  0.3345 -2.4209 -0.3002
 7412SOL    HW329421   3.102   3.111   4.553 -0.0035 -0.4412 -0.1473
 7412SOL    MW429422   3.052   3.076   4.616  0.2192  0.4323 -0.1682
 7413SOL     OW29423   5.870   3.517   1.349  0.5828  0.9798  0.3657
 7413SOL    HW229424   5.870   3.458   1.424  0.7935  1.2167  0.5582
 7413SOL    HW329425   5.839   3.601   1.384 -0.3479  0.8154 -0.0487
 7413SOL    MW429426   5.866   3.521   1.363  0.3468  0.2661 -0.5414
 7414SOL     OW29427   3.880   0.405   0.247 -0.1476 -0.1665  0.5065
 7414SOL    HW229428   3.917   0.440   0.328 -0.4021 -0.5004  0.7700
 7414SOL    HW329429   3.880   0.310   0.260  0.2072 -0.2469 -0.0577
 7414SOL    MW429430   3.885   0.397   0.260  0.1508  0.4977  0.4856
 7415SOL     OW29431   5.775   2.399   3.839 -0.1075  0.2586  0.1653
 7415SOL    HW229432   5.761   2.351   3.757  0.3909  2.2501 -1.1565
 7415SOL    HW329433   5.817   2.335   3.897  0.4302 -0.9442 -1.4747
 7415SOL    MW429434   5.779   2.384   3.836  0.0035  0.2857  0.2570
 7416SOL     OW29435   2.136   5.053   1.394  0.2339 -0.1099  0.2069
 7416SOL    HW229436   2.197   5.028   1.324 -1.5205 -0.7581 -1.1714
 7416SOL    HW329437   2.169   5.008   1.471  3.7129  2.6117  0.5623
 7416SOL    MW429438   2.148   5.044   1.395 -0.1882  0.0365 -1.0039
 7417SOL     OW29439   3.554   2.559   4.010 -0.5625 -0.3545  0.2168
 7417SOL    HW229440   3.493   2.621   4.050  0.1373 -1.0032  2.3872
 7417SOL    HW329441   3.518   2.473   4.031  1.2580 -0.7570  1.9046
 7417SOL    MW429442   3.541   2.556   4.018 -0.4138  0.4731 -0.2055
 7418SOL     OW29443   2.158   6.066   0.647  0.5828 -0.5377 -0.1276
 7418SOL    HW229444   2.122   6.094   0.732 -0.3995 -0.2794 -0.6161
 7418SOL    HW329445   2.245   6.107   0.643 -0.7020  2.3929 -0.7280
 7418SOL    MW429446   2.165   6.075   0.658 -0.1422 -0.1985  0.1367
 7419SOL     OW29447   0.329   1.284   0.370 -0.0730  0.3752 -0.6076
 7419SOL    HW229448   0.372   1.361   0.333 -0.0666  0.2383 -0.8833
 7419SOL    HW329449   0.376   1.210   0.333  1.8035  0.2299  1.8399
 7419SOL    MW429450   0.341   1.284   0.361 -0.6161 -0.3519  0.3466
 7420SOL     OW29451   0.139   0.785   5.705  0.4531  0.2453  0.2236
 7420SOL    HW229452   0.078   0.840   5.655  0.0951 -0.0727  0.3039
 7420SOL    HW329453   0.225   0.826   5.691  0.1586  0.9849  0.4995
 7420SOL    MW429454   0.142   0.798   5.697 -0.0215  0.5388 -0.4422
 7421SOL     OW29455   0.248   4.168   4.939  0.6695 -0.2320  0.2642
 7421SOL    HW229456   0.297   4.121   5.006  2.2833 -0.2359 -0.8558
 7421SOL    HW329457   0.177   4.109   4.914  1.0896 -0.9413  0.7346
 7421SOL    MW429458   0.245   4.154   4.945 -0.4849 -0.5206  0.4885
 7422SOL     OW29459   0.266   5.310   2.717 -0.0815 -0.0331  0.0531
 7422SOL    HW229460   0.221   5.287   2.636  0.2691 -0.2259 -0.0879
 7422SOL    HW329461   0.199   5.355   2.769  0.1967  1.8395 -1.1115
 7422SOL    MW429462   0.251   5.312   2.713 -0.0960  0.3699 -0.3363
 7423SOL     OW29463   4.951   2.714   6.055 -0.0507  0.2904  0.1915
 7423SOL    HW229464   4.902   2.696   5.976 -0.6455 -0.7944  0.7894
 7423SOL    HW329465   4.942   2.809   6.069 -0.0933  0.4535 -0.9143
 7423SOL    MW429466   4.944   2.724   6.047  0.0850 -0.1960 -0.3615
 7424SOL     OW29467   3.459   5.793   3.350 -0.1068  0.4671  0.3927
 7424SOL    HW229468   3.387   5.732   3.364 -0.0456  0.5208  0.9556
 7424SOL    HW329469   3.417   5.876   3.327 -0.1701  0.0254 -1.1569
 7424SOL    MW429470   3.444   5.796   3.349 -0.4300  0.2005 -0.1236
 7425SOL     OW29471   2.886   0.023   0.408  0.8289  0.4788 -0.3709
 7425SOL    HW229472   2.843  -0.056   0.440  0.7048  0.9685  0.7343
 7425SOL    HW329473   2.980   0.001   0.408  0.7661  0.2053 -0.4672
 7425SOL    MW429474   2.893   0.010   0.412 -0.2053 -0.5158 -0.3613
 7426SOL     OW29475   2.833   3.734   1.125 -0.6268 -0.4534 -0.2264
 7426SOL    HW229476   2.752   3.713   1.080 -0.2985  1.1009 -1.6601
 7426SOL    HW329477   2.865   3.650   1.158 -1.9553 -1.3335 -1.0832
 7426SOL    MW429478   2.827   3.720   1.124  0.1676  0.7002 -1.1765
 7427SOL     OW29479   0.005   0.181   1.176  0.0029 -0.4956  0.2065
 7427SOL    HW229480  -0.072   0.196   1.231 -0.3157  0.6985 -0.5345
 7427SOL    HW329481  -0.001   0.089   1.151 -1.1006 -0.4569  0.2882
 7427SOL    MW429482  -0.006   0.171   1.180  0.5088  0.1083  0.0363
 7428SOL     OW29483   3.570   1.677   4.935  0.0183 -0.0792  0.0264
 7428SOL    HW229484   3.583   1.771   4.923 -0.0812  0.0556  0.8702
 7428SOL    HW329485   3.576   1.665   5.030  0.1747 -0.9462 -0.0890
 7428SOL    MW429486   3.573   1.688   4.946 -0.3832  0.1102 -0.2361
 7429SOL     OW29487   0.638   3.437   4.911 -0.0116 -0.4322  1.0477
 7429SOL    HW229488   0.564   3.385   4.880  0.3256 -0.2765 -0.0286
 7429SOL    HW329489   0.715   3.385   4.889  0.4454  1.1849 -1.5250
 7429SOL    MW429490   0.639   3.423   4.904  0.2480 -0.1412  0.1572
 7430SOL     OW29491   4.944   0.625   0.809  0.1855 -0.2833 -0.0818
 7430SOL    HW229492   5.007   0.695   0.793  0.7201 -0.3564  1.5178
 7430SOL    HW329493   4.859   0.666   0.797  0.5077  0.4222  0.0004
 7430SOL    MW429494   4.941   0.640   0.805 -0.0240  0.3517 -0.0050
 7431SOL     OW29495   3.456   2.217   3.739 -0.1749 -0.7543  0.7478
 7431SOL    HW229496   3.401   2.289   3.707 -0.3266  0.1082  2.7492
 7431SOL    HW329497   3.543   2.256   3.747 -0.3674 -0.5697  2.3608
 7431SOL    MW429498   3.460   2.232   3.736 -0.1002 -0.4757  0.6311
 7432SOL     OW29499   4.544   0.091   1.575  0.0897 -0.1823  0.0388
 7432SOL    HW229500   4.614   0.089   1.510 -0.2492 -2.4955 -0.3099
 7432SOL    HW329501   4.464   0.080   1.525 -0.3696  0.1891  0.6686
 7432SOL    MW429502   4.543   0.089   1.560 -0.2211  0.2244 -0.1976
 7433SOL     OW29503   3.291   2.212   2.670 -0.7599 -0.1709 -0.0250
 7433SOL    HW229504   3.340   2.266   2.732 -1.3016 -0.3065  0.5294
 7433SOL    HW329505   3.305   2.254   2.585 -0.2663  0.1969  0.2357
 7433SOL    MW429506   3.299   2.225   2.667  0.2698  0.1521  0.1002
 7434SOL     OW29507   2.208   0.017   5.363  0.0170  0.5257 -0.2127
 7434SOL    HW229508   2.262   0.089   5.397  0.8838 -0.8231  1.3722
 7434SOL    HW329509   2.250  -0.008   5.282  1.4979 -0.1276  0.7170
 7434SOL    MW429510   2.220   0.023   5.357 -0.1777  0.8155 -0.1038
 7435SOL     OW29511   2.353   1.718   5.729  0.5498 -0.7747 -0.3191
 7435SOL    HW229512   2.433   1.679   5.695  1.3172  0.5261 -0.0824
 7435SOL    HW329513   2.355   1.701   5.823  0.6066 -0.6344 -0.2951
 7435SOL    MW429514   2.364   1.711   5.737  0.6022 -0.0367  0.3923
 7436SOL     OW29515   1.723   4.246   1.458  0.0386 -0.1433  0.6041
 7436SOL    HW229516   1.753   4.156   1.473 -0.4871 -0.6454 -1.1295
 7436SOL    HW329517   1.706   4.250   1.364  0.1837  1.8254  0.6201
 7436SOL    MW429518   1.725   4.234   1.448 -0.2753  0.2107  0.1587
 7437SOL     OW29519   5.078   3.826   1.283 -0.4790 -0.2484 -0.1637
 7437SOL    HW229520   5.045   3.782   1.361 -1.1694  0.9529  0.2349
 7437SOL    HW329521   5.049   3.770   1.210 -0.4854 -0.9654  0.3726
 7437SOL    MW429522   5.070   3.813   1.284  0.0829 -0.2249  0.3755
 7438SOL     OW29523   4.428   0.839   3.562  0.3188 -0.5248 -0.3100
 7438SOL    HW229524   4.403   0.873   3.477  1.6404 -1.5921 -1.1704
 7438SOL    HW329525   4.494   0.773   3.543 -1.1533 -2.6387  1.3241
 7438SOL    MW429526   4.433   0.834   3.548 -0.0765  0.1870 -0.3381
 7439SOL     OW29527   0.961   3.780   1.958 -0.1443  0.1802  0.4828
 7439SOL    HW229528   0.897   3.835   2.002  1.4018  0.5997  2.3483
 7439SOL    HW329529   0.955   3.696   2.002  0.8538  0.3533  0.9758
 7439SOL    MW429530   0.952   3.776   1.969  0.1000 -0.4798  0.6579
 7440SOL     OW29531   2.993   4.644   4.656  0.1290 -0.5099 -0.2469
 7440SOL    HW229532   2.938   4.696   4.599  0.0238 -0.1477  0.1735
 7440SOL    HW329533   2.937   4.573   4.686 -0.4068  0.3514  0.8836
 7440SOL    MW429534   2.979   4.642   4.653 -0.0534  0.3458  0.1269
 7441SOL     OW29535   2.515   2.530   0.141 -0.0546  0.5450 -0.3256
 7441SOL    HW229536   2.604   2.564   0.143 -0.1781  0.9528 -1.2210
 7441SOL    HW329537   2.514   2.459   0.205  1.4732 -0.8267 -1.7439
 7441SOL    MW429538   2.526   2.525   0.149 -0.3467 -0.0237 -0.0319
 7442SOL     OW29539   4.815   4.564   2.138  0.2712  0.4673 -0.2581
 7442SOL    HW229540   4.894   4.603   2.175 -0.6671  1.0507  1.2182
 7442SOL    HW329541   4.847   4.489   2.087  1.7559  0.5535  0.4968
 7442SOL    MW429542   4.829   4.559   2.137  0.1405 -0.3548  0.4121
 7443SOL     OW29543   6.207   0.018   3.585  0.1103 -0.0235 -0.0424
 7443SOL    HW229544   6.221   0.093   3.528  0.8413  0.2474  0.4807
 7443SOL    HW329545   6.285  -0.036   3.573  0.1671 -0.0771  0.5203
 7443SOL    MW429546   6.219   0.021   3.576 -0.3665  0.5892 -0.9238
 7444SOL     OW29547   0.736   5.863   3.831 -0.3939  0.2510 -0.0866
 7444SOL    HW229548   0.773   5.881   3.744  0.6621 -0.4709  0.1937
 7444SOL    HW329549   0.808   5.880   3.892  0.4281 -3.6528  0.2952
 7444SOL    MW429550   0.750   5.868   3.828 -0.6745  0.3447  0.1704
 7445SOL     OW29551   2.368   4.468   1.516  0.4034  0.2672  0.4477
 7445SOL    HW229552   2.354   4.461   1.422 -1.4995 -0.0433  0.7202
 7445SOL    HW329553   2.442   4.528   1.525  0.6516  0.2552 -1.2263
 7445SOL    MW429554   2.376   4.475   1.505 -0.2289 -1.0755  0.1351
 7446SOL     OW29555   2.003   2.778   0.237 -0.1700  0.5495  0.4678
 7446SOL    HW229556   1.913   2.801   0.258 -0.5939 -1.2898  0.8998
 7446SOL    HW329557   2.053   2.802   0.315 -0.3723  1.0490  0.4473
 7446SOL    MW429558   1.998   2.784   0.250 -0.6324  0.8428 -0.2293
 7447SOL     OW29559   1.039   3.264   4.545  0.0230  0.4968 -0.2873
 7447SOL    HW229560   0.990   3.279   4.464  2.1653  2.2340 -1.3479
 7447SOL    HW329561   1.046   3.169   4.552 -3.5266  0.0928  0.0473
 7447SOL    MW429562   1.033   3.254   4.535  0.1312 -0.5505  0.0830
 7448SOL     OW29563   4.301   0.463   3.410  0.0778  0.7318  0.3684
 7448SOL    HW229564   4.236   0.397   3.383 -2.2771  2.4732  1.3664
 7448SOL    HW329565   4.370   0.457   3.345 -1.1748 -1.1262 -0.9045
 7448SOL    MW429566   4.301   0.453   3.398  0.0857 -0.0687  0.1614
 7449SOL     OW29567   3.486   0.542   6.309  0.1006  0.1096 -0.2155
 7449SOL    HW229568   3.431   0.478   6.354 -1.4823  0.6512 -1.2571
 7449SOL    HW329569   3.576   0.512   6.323 -0.5188 -1.5131  0.5212
 7449SOL    MW429570   3.490   0.530   6.316 -0.6006 -0.2983 -0.1919
 7450SOL     OW29571   0.354   2.124   0.550  0.2432  0.0993 -0.1319
 7450SOL    HW229572   0.367   2.036   0.515 -0.1872  0.3348 -0.9037
 7450SOL    HW329573   0.384   2.182   0.480  0.2048  0.5709  0.2413
 7450SOL    MW429574   0.360   2.120   0.536  0.4161 -0.0959  0.0746
 7451SOL     OW29575   1.603   4.619   4.200 -0.3120  0.4287  0.4349
 7451SOL    HW229576   1.512   4.620   4.169  0.4853  0.6743 -2.2103
 7451SOL    HW329577   1.605   4.553   4.268 -2.5659  0.7783  0.9103
 7451SOL    MW429578   1.591   4.611   4.205 -0.0441  0.0904 -0.3659
 7452SOL     OW29579   1.034   0.984   0.341  0.5437  0.3800 -0.1866
 7452SOL    HW229580   0.955   0.968   0.290 -0.2203 -0.1877  1.1125
 7452SOL    HW329581   1.006   0.975   0.432  1.8477  1.3918  0.3453
 7452SOL    MW429582   1.020   0.981   0.346 -0.1107 -0.2057 -0.2616
 7453SOL     OW29583   2.491   2.229   4.323 -0.3035 -0.2146  1.0227
 7453SOL    HW229584   2.465   2.146   4.284  0.2153  0.2430 -0.3718
 7453SOL    HW329585   2.543   2.204   4.399  1.7054 -1.2604 -0.5846
 7453SOL    MW429586   2.495   2.215   4.327  0.0812  0.0485 -0.2785
 7454SOL     OW29587   1.921   2.723   5.045 -0.8286 -0.3045 -0.8070
 7454SOL    HW229588   2.011   2.740   5.073 -0.4278 -0.8657 -1.6844
 7454SOL    HW329589   1.880   2.809   5.041 -0.6753 -0.1433  0.6959
 7454SOL    MW429590   1.928   2.736   5.048  0.0900 -0.0478 -0.2370
 7455SOL     OW29591   1.936   2.498   0.854  0.0878  0.3445 -0.0438
 7455SOL    HW229592   1.914   2.407   0.834  1.1109  0.5287 -2.2697
 7455SOL    HW329593   2.030   2.498   0.868  0.1709  1.1169 -0.5256
 7455SOL    MW429594   1.945   2.486   0.853 -0.0994  0.2790  0.1289
 7456SOL     OW29595   1.720   2.211   2.563  0.1492 -0.1587  0.5162
 7456SOL    HW229596   1.728   2.231   2.656  0.2845  3.1095 -0.0794
 7456SOL    HW329597   1.729   2.296   2.519 -1.5270 -1.3436 -2.4005
 7456SOL    MW429598   1.723   2.225   2.569  0.6009  0.0283 -0.0517
 7457SOL     OW29599   1.447   1.760   1.183  0.0234 -0.2389 -0.1033
 7457SOL    HW229600   1.427   1.686   1.240  1.1529 -1.0426 -0.6983
 7457SOL    HW329601   1.482   1.720   1.103  0.2989  0.9250 -0.5880
 7457SOL    MW429602   1.449   1.745   1.180 -0.1597 -0.0984  0.1410
 7458SOL     OW29603   6.068   5.907   4.573  0.2493  0.2715 -0.0389
 7458SOL    HW229604   5.995   5.954   4.613  0.2510  1.1839 -1.0832
 7458SOL    HW329605   6.145   5.960   4.592  0.4806 -0.0793  0.0274
 7458SOL    MW429606   6.068   5.920   4.581 -0.1286  0.0487  0.5765
 7459SOL     OW29607   2.230   6.142   3.650  0.1860  0.4983  0.1246
 7459SOL    HW229608   2.182   6.184   3.579  0.8020 -0.6928 -1.0478
 7459SOL    HW329609   2.165   6.123   3.716 -0.3840  1.7551 -0.0487
 7459SOL    MW429610   2.215   6.145   3.649  0.3629 -0.3492 -0.3493
 7460SOL     OW29611   2.417   5.899   4.665 -0.5793  0.3742 -0.2241
 7460SOL    HW229612   2.325   5.923   4.656 -0.7967 -0.5755 -0.6514
 7460SOL    HW329613   2.434   5.843   4.589  0.1147 -0.1882  0.3430
 7460SOL    MW429614   2.407   5.895   4.654  0.2666  0.1140 -0.4413
 7461SOL     OW29615   5.497   6.216   1.777 -0.6354  0.1519  0.3608
 7461SOL    HW229616   5.492   6.311   1.768 -1.6871  0.0940  0.2848
 7461SOL    HW329617   5.546   6.203   1.858  0.4474  0.7399 -0.1757
 7461SOL    MW429618   5.503   6.227   1.787 -0.5525  0.2688  0.5603
 7462SOL     OW29619   0.261   3.638   0.798  0.0210 -0.3771 -0.2286
 7462SOL    HW229620   0.263   3.572   0.867  1.7573 -0.2883 -0.1351
 7462SOL    HW329621   0.221   3.715   0.838  0.0484 -0.6649  0.3546
 7462SOL    MW429622   0.256   3.639   0.812  0.0241 -0.9130 -0.8333
 7463SOL     OW29623   5.836   0.439   0.892  0.2032 -0.0743  0.3714
 7463SOL    HW229624   5.750   0.473   0.918  0.2891  1.7057 -1.4327
 7463SOL    HW329625   5.893   0.460   0.966 -1.0448 -2.2750  2.0871
 7463SOL    MW429626   5.832   0.446   0.906 -0.4468 -0.7908 -0.2900
 7464SOL     OW29627   5.272   5.486   3.501 -0.4769  0.0890 -0.1080
 7464SOL    HW229628   5.243   5.566   3.457 -1.9590  0.2574  1.0787
 7464SOL    HW329629   5.293   5.514   3.590  0.5305 -0.5883 -0.1144
 7464SOL    MW429630   5.271   5.500   3.507 -0.8431  0.5412 -0.2456
 7465SOL     OW29631   2.518   1.654   0.911 -0.3104 -0.3496  0.0206
 7465SOL    HW229632   2.573   1.718   0.956 -1.4764 -0.7537  2.1065
 7465SOL    HW329633   2.554   1.651   0.822  1.1913  1.5056  0.4963
 7465SOL    MW429634   2.530   1.662   0.905 -0.8004 -0.2302 -0.5042
 7466SOL     OW29635   0.087   2.698   5.932  0.2781  0.3448  0.6940
 7466SOL    HW229636   0.164   2.755   5.938  0.0332  0.7616 -0.0119
 7466SOL    HW329637   0.050   2.717   5.847 -1.6450  1.4936  1.7307
 7466SOL    MW429638   0.093   2.708   5.922 -0.1816 -0.2270 -0.1114
 7467SOL     OW29639   0.969   4.795   0.867  0.1748 -0.4858 -1.1848
 7467SOL    HW229640   1.033   4.725   0.884 -1.4976 -1.9881 -0.7374
 7467SOL    HW329641   0.931   4.773   0.782  0.5722  0.6726 -1.6776
 7467SOL    MW429642   0.972   4.782   0.858  0.7198 -0.5201  0.1824
 7468SOL     OW29643   4.841   4.636   5.147 -0.0036  0.2343  0.1169
 7468SOL    HW229644   4.842   4.695   5.071  2.5827 -2.4106 -2.1229
 7468SOL    HW329645   4.922   4.656   5.194 -0.6547  0.5337  1.1476
 7468SOL    MW429646   4.852   4.647   5.143  0.1509  0.3208 -0.3977
 7469SOL     OW29647   2.187   4.248   4.009 -0.1385 -0.2057 -0.2863
 7469SOL    HW229648   2.129   4.187   3.963 -0.4968 -0.3302  0.3206
 7469SOL    HW329649   2.181   4.329   3.957 -1.6529  0.1016  0.2941
 7469SOL    MW429650   2.178   4.251   3.996 -0.4694  0.0793 -0.0221
 7470SOL     OW29651   0.802   5.584   3.868 -0.0379 -0.2868 -0.4424
 7470SOL    HW229652   0.895   5.569   3.852  0.7530  1.7280  1.6453
 7470SOL    HW329653   0.783   5.665   3.822 -0.7590 -0.6546 -0.7995
 7470SOL    MW429654   0.812   5.592   3.860  0.2763  0.2394  0.4973
 7471SOL     OW29655   0.533   4.831   0.903 -0.1106 -0.7791  0.3059
 7471SOL    HW229656   0.541   4.884   0.824  1.9607 -0.0184  0.9665
 7471SOL    HW329657   0.495   4.748   0.873  0.1597 -0.3186 -1.3821
 7471SOL    MW429658   0.529   4.827   0.889  0.2487 -0.3273 -0.5377
 7472SOL     OW29659   6.227   3.491   2.064 -0.2636 -0.2700  0.5401
 7472SOL    HW229660   6.300   3.430   2.072 -1.8703 -2.3886  0.0169
 7472SOL    HW329661   6.149   3.435   2.068 -1.8282  1.7515 -0.1437
 7472SOL    MW429662   6.226   3.475   2.065  0.0411  0.5168  0.0938
 7473SOL     OW29663   5.097   4.376   4.359  0.7220  0.0929  0.3270
 7473SOL    HW229664   5.078   4.299   4.412  0.7209  0.3234  0.6601
 7473SOL    HW329665   5.033   4.373   4.288 -0.2316  0.5867  1.1551
 7473SOL    MW429666   5.086   4.365   4.356 -0.0481  0.6607 -0.6265
 7474SOL     OW29667   5.556   6.408   3.235 -0.0790  0.1005 -0.8161
 7474SOL    HW229668   5.540   6.326   3.283 -0.8260  1.1413  0.8113
 7474SOL    HW329669   5.512   6.395   3.151 -0.8497 -0.8881 -0.2925
 7474SOL    MW429670   5.548   6.395   3.231  0.0931 -0.2474 -0.4374
 7475SOL     OW29671   0.689   1.263   4.271  0.0079  0.0772 -0.1760
 7475SOL    HW229672   0.598   1.263   4.302  0.3798 -0.3891  0.9466
 7475SOL    HW329673   0.734   1.202   4.329  1.1269  0.5901 -0.4852
 7475SOL    MW429674   0.683   1.255   4.283 -0.1450 -0.0814  0.1261
 7476SOL     OW29675   2.500   4.186   5.874 -0.3362  0.9733 -0.2668
 7476SOL    HW229676   2.433   4.181   5.942 -1.2210 -0.2160 -1.1818
 7476SOL    HW329677   2.467   4.130   5.804  1.3620  0.8132 -0.9807
 7476SOL    MW429678   2.487   4.178   5.874  0.2759 -0.6709 -0.5162
 7477SOL     OW29679   2.073   3.635   5.626  0.6427  0.5002 -0.5620
 7477SOL    HW229680   2.024   3.554   5.608 -0.4162  0.9135  0.3329
 7477SOL    HW329681   2.149   3.606   5.676 -0.3474  0.1422  0.8016
 7477SOL    MW429682   2.076   3.620   5.630 -0.2504  0.2846 -0.1992
 7478SOL     OW29683   0.206   4.677   1.989  0.2335  0.0827  0.0115
 7478SOL    HW229684   0.183   4.604   1.932  0.6366  0.1462 -0.2331
 7478SOL    HW329685   0.241   4.636   2.068 -1.7684 -0.0681  0.9008
 7478SOL    MW429686   0.207   4.662   1.992  0.1594  0.2422  0.3236
 7479SOL     OW29687   5.315   3.861   2.904 -0.2945 -0.2713  0.4695
 7479SOL    HW229688   5.374   3.895   2.837 -0.9470  0.9183  0.4794
 7479SOL    HW329689   5.251   3.809   2.856  0.3240 -0.9614  0.3804
 7479SOL    MW429690   5.315   3.859   2.889 -0.1317  0.1842 -0.4725
 7480SOL     OW29691   3.765   4.166   1.137 -0.2054 -0.7012 -0.2508
 7480SOL    HW229692   3.677   4.202   1.149 -0.1879  0.3785 -2.5988
 7480SOL    HW329693   3.768   4.088   1.191 -1.7383  0.5665  1.7989
 7480SOL    MW429694   3.754   4.161   1.145  0.4343  0.3450  0.4386
 7481SOL     OW29695   3.946   3.966   6.439 -0.1119  0.4447  0.9190
 7481SOL    HW229696   3.993   3.900   6.489 -0.1421  0.9288  1.6152
 7481SOL    HW329697   3.858   3.930   6.427  0.3631 -0.3785 -0.2171
 7481SOL    MW429698   3.940   3.953   6.444 -0.3185  0.4081  0.7938
 7482SOL     OW29699   5.238   5.239   6.356 -0.0051  0.0325 -0.3640
 7482SOL    HW229700   5.291   5.185   6.298  1.0231 -0.8063  1.2642
 7482SOL    HW329701   5.280   5.325   6.353  0.2462 -0.0973 -0.5975
 7482SOL    MW429702   5.251   5.243   6.348  0.1785  0.1577 -0.0552
 7483SOL     OW29703   1.849   3.330   2.276  0.2855 -0.1842 -0.2289
 7483SOL    HW229704   1.775   3.382   2.245 -1.2191 -1.9878  0.1936
 7483SOL    HW329705   1.836   3.244   2.237  2.7277 -0.3191 -0.9212
 7483SOL    MW429706   1.838   3.326   2.267  0.1933 -0.4577 -0.0755
 7484SOL     OW29707   4.504   3.106   6.285 -0.4203  0.0878 -0.2618
 7484SOL    HW229708   4.477   3.056   6.361  0.4326 -0.8173 -0.5334
 7484SOL    HW329709   4.565   3.172   6.319 -2.0957  1.4636  0.2007
 7484SOL    MW429710   4.509   3.108   6.299 -0.3851  0.0652  0.5031
 7485SOL     OW29711   0.974   2.811   2.089 -0.0346  0.2579  0.2325
 7485SOL    HW229712   1.056   2.768   2.113  0.2470  0.6227 -0.0540
 7485SOL    HW329713   0.952   2.775   2.003 -0.9096 -0.8616  0.8958
 7485SOL    MW429714   0.982   2.801   2.081 -0.1500 -0.2442 -0.1945
 7486SOL     OW29715   2.638   2.267   4.897 -0.6209  0.0110 -0.2493
 7486SOL    HW229716   2.591   2.315   4.965 -2.3738 -0.8521 -0.7994
 7486SOL    HW329717   2.572   2.245   4.832  1.0795  1.3095 -2.5948
 7486SOL    MW429718   2.623   2.270   4.898  0.4903 -0.1452 -0.4489
 7487SOL     OW29719   0.239   4.483   1.588 -0.3106  0.1462 -0.7041
 7487SOL    HW229720   0.194   4.421   1.530 -0.7283  0.0624 -0.2924
 7487SOL    HW329721   0.179   4.557   1.594 -0.1338  0.2805 -0.6141
 7487SOL    MW429722   0.225   4.484   1.581 -0.0252  0.3102  0.4323
 7488SOL     OW29723   1.482   0.567   4.473  0.1075  0.2726 -0.2026
 7488SOL    HW229724   1.577   0.576   4.469  0.1258 -0.2058 -0.9819
 7488SOL    HW329725   1.462   0.494   4.415 -0.6415 -0.3043  0.7531
 7488SOL    MW429726   1.492   0.559   4.465  0.2153 -0.2070  0.0676
 7489SOL     OW29727   6.315   5.857   2.853 -0.1078 -0.2225 -0.3435
 7489SOL    HW229728   6.227   5.826   2.873 -0.7819  0.4902 -2.0023
 7489SOL    HW329729   6.303   5.950   2.832  1.0962 -0.0361 -0.2623
 7489SOL    MW429730   6.302   5.865   2.853 -0.7417  0.6324  0.6619
 7490SOL     OW29731   2.096   0.309   5.246 -0.2099  0.2810  0.0831
 7490SOL    HW229732   2.083   0.300   5.341  0.0573 -1.7223 -0.0356
 7490SOL    HW329733   2.148   0.389   5.237  0.2702  0.1901  1.6734
 7490SOL    MW429734   2.101   0.319   5.257  0.1936 -0.1318  0.1753
 7491SOL     OW29735   4.194   1.954   2.661 -0.9049  0.1685 -0.3647
 7491SOL    HW229736   4.157   1.948   2.749 -1.8653  0.0212 -0.7697
 7491SOL    HW329737   4.210   2.048   2.648 -2.2097  0.3741 -0.6070
 7491SOL    MW429738   4.191   1.966   2.671  0.2245  0.1079  0.1447
 7492SOL     OW29739   5.268   4.572   4.066 -0.4076 -0.7480 -0.5942
 7492SOL    HW229740   5.180   4.538   4.084 -0.5520  0.8042  2.2633
 7492SOL    HW329741   5.323   4.532   4.134  0.7902 -0.4857 -1.3825
 7492SOL    MW429742   5.264   4.562   4.077  0.2824 -0.1364  0.1913
 7493SOL     OW29743   5.085   5.960   3.849 -0.1099  0.1804  0.3908
 7493SOL    HW229744   5.123   5.896   3.789 -0.7794 -0.3866  0.5589
 7493SOL    HW329745   5.144   5.959   3.925 -0.1044 -0.2116  0.3804
 7493SOL    MW429746   5.098   5.952   3.852  0.5469  0.2373 -0.2557
 7494SOL     OW29747   2.396   1.533   3.778 -0.2528 -0.1184 -0.7368
 7494SOL    HW229748   2.364   1.492   3.858 -0.4880  1.6233  0.1126
 7494SOL    HW329749   2.492   1.530   3.786 -0.2158  2.2573  0.9107
 7494SOL    MW429750   2.405   1.527   3.790  0.1833  0.2870  0.2676
 7495SOL     OW29751   0.262   4.904   1.737  0.1543 -0.1104 -0.2193
 7495SOL    HW229752   0.217   4.823   1.713  0.2945 -0.1669 -0.2925
 7495SOL    HW329753   0.308   4.931   1.658 -1.2178  0.9388 -0.7173
 7495SOL    MW429754   0.262   4.897   1.724 -0.2330  0.4093 -0.2269
 7496SOL     OW29755   5.311   1.569   1.047  0.5988 -0.4413 -0.1513
 7496SOL    HW229756   5.368   1.562   0.970  1.6428 -1.0791  0.6481
 7496SOL    HW329757   5.223   1.561   1.012  0.9782  0.5672 -1.4356
 7496SOL    MW429758   5.307   1.567   1.032 -0.2725 -0.5842 -0.1932
 7497SOL     OW29759   3.577   0.021   3.208 -0.2307 -0.0014 -0.0827
 7497SOL    HW229760   3.596   0.111   3.179 -0.7054  0.3819  0.7536
 7497SOL    HW329761   3.658  -0.009   3.247 -0.4052  0.5101  0.7058
 7497SOL    MW429762   3.590   0.029   3.209 -0.5310 -0.0248 -0.0647
 7498SOL     OW29763   3.841   5.547   5.662 -0.1156 -0.4779  0.0342
 7498SOL    HW229764   3.862   5.603   5.737  2.2874  0.2442 -1.1008
 7498SOL    HW329765   3.802   5.469   5.701 -1.4907  0.9933  1.8153
 7498SOL    MW429766   3.838   5.544   5.677 -0.1461  0.2162 -0.4907
 7499SOL     OW29767   0.822   2.768   3.522 -0.4951  0.5848  0.1824
 7499SOL    HW229768   0.812   2.853   3.565 -1.7098 -0.4939  2.2047
 7499SOL    HW329769   0.848   2.709   3.593 -0.1897 -0.8403 -1.0691
 7499SOL    MW429770   0.824   2.771   3.537  0.4908 -0.4628  0.0425
 7500SOL     OW29771   1.068   2.210   4.602  0.0081 -0.1797  0.0230
 7500SOL    HW229772   1.021   2.289   4.631  1.5832  0.5915  0.6237
 7500SOL    HW329773   1.108   2.176   4.682  1.9534  0.2598 -0.7095
 7500SOL    MW429774   1.067   2.216   4.616 -0.4297  0.1326 -0.7164
 7501SOL     OW29775   5.120   6.333   0.944 -0.6987 -0.2286  0.0732
 7501SOL    HW229776   5.044   6.358   0.997 -1.2333  0.6322 -1.0559
 7501SOL    HW329777   5.087   6.262   0.888 -0.5229 -0.2246 -0.0368
 7501SOL    MW429778   5.105   6.327   0.943  0.7866  0.1552 -0.4471
 7502SOL     OW29779   5.834   4.128   4.586  0.0996  0.2035  0.3322
 7502SOL    HW229780   5.805   4.111   4.496 -3.6608  0.7465  1.2469
 7502SOL    HW329781   5.832   4.223   4.594 -0.9880  0.1200  1.3150
 7502SOL    MW429782   5.830   4.138   4.575  0.0559 -0.1720  0.2783
 7503SOL     OW29783   1.394   4.685   3.834  0.4154 -0.0782  0.0816
 7503SOL    HW229784   1.419   4.611   3.779  0.8218 -0.7314  1.1056
 7503SOL    HW329785   1.397   4.761   3.776 -0.4500 -0.9171 -1.0977
 7503SOL    MW429786   1.398   4.685   3.819  0.0561 -0.8665  0.6595
 7504SOL     OW29787   3.884   2.573   0.974  0.7609  0.4666  0.1700
 7504SOL    HW229788   3.849   2.567   1.063  2.2816 -2.5002  0.7068
 7504SOL    HW329789   3.859   2.660   0.944 -1.0509  1.0326  2.9498
 7504SOL    MW429790   3.876   2.584   0.982 -0.0568 -0.3700 -0.7465
 7505SOL     OW29791   2.175   3.516   4.613  0.0616  0.0127 -0.6175
 7505SOL    HW229792   2.120   3.450   4.572 -1.7005  2.0088 -1.6312
 7505SOL    HW329793   2.247   3.529   4.551 -0.3466  0.0288 -1.0938
 7505SOL    MW429794   2.178   3.509   4.599 -0.0154  1.1155 -0.1318
 7506SOL     OW29795   2.363   2.789   0.152  0.1258 -0.3483  0.2521
 7506SOL    HW229796   2.304   2.746   0.091  1.9232 -1.2632 -0.9292
 7506SOL    HW329797   2.416   2.718   0.187  0.6722  0.4692  1.1243
 7506SOL    MW429798   2.362   2.774   0.149 -0.5893  0.4211 -0.0178
 7507SOL     OW29799   4.912   4.772   2.867 -0.2563  0.3728  0.3632
 7507SOL    HW229800   4.948   4.715   2.798  0.0804  0.7130  0.2533
 7507SOL    HW329801   4.923   4.722   2.947 -2.3726 -0.8433 -0.0232
 7507SOL    MW429802   4.918   4.758   2.868 -0.6188 -0.0959  0.1900
 7508SOL     OW29803   5.657   2.171   6.229  0.0134  0.4086 -0.2469
 7508SOL    HW229804   5.716   2.131   6.164  0.2382 -0.2666  0.3597
 7508SOL    HW329805   5.593   2.219   6.176  1.3408  1.5267 -0.9173
 7508SOL    MW429806   5.656   2.172   6.213  0.2314 -0.0734 -0.0411
 7509SOL     OW29807   0.891   4.782   1.610 -0.2815 -0.3929  0.4672
 7509SOL    HW229808   0.960   4.826   1.659  0.7102 -1.1543 -0.2044
 7509SOL    HW329809   0.844   4.731   1.675  2.2385 -2.9610  0.4583
 7509SOL    MW429810   0.894   4.781   1.625 -0.2465  0.2361 -0.2412
 7510SOL     OW29811   1.459   6.112   3.899  0.2445 -0.2030 -0.4742
 7510SOL    HW229812   1.554   6.103   3.905  0.3621  1.5638  1.0627
 7510SOL    HW329813   1.425   6.066   3.975  0.1196  1.6347  0.6569
 7510SOL    MW429814   1.467   6.105   3.910 -0.3951  0.4476  0.3220
 7511SOL     OW29815   1.621   3.999   3.825 -0.6048  0.3403 -0.4313
 7511SOL    HW229816   1.589   3.944   3.753 -1.0401  0.3852 -0.2760
 7511SOL    HW329817   1.560   4.073   3.827 -1.9954 -0.7727  1.4406
 7511SOL    MW429818   1.609   4.002   3.816 -0.4192 -0.1507 -0.5650
 7512SOL     OW29819   4.693   2.249   6.408  0.0326 -0.3016 -0.2959
 7512SOL    HW229820   4.658   2.290   6.330 -0.1160 -0.2768 -0.2156
 7512SOL    HW329821   4.786   2.234   6.388  0.1733  0.3953 -0.1889
 7512SOL    MW429822   4.701   2.252   6.395 -0.0991 -0.0747 -0.1860
 7513SOL     OW29823   2.439   1.847   3.931 -0.0568 -0.0849  0.0339
 7513SOL    HW229824   2.402   1.911   3.870  1.7314  0.7327 -0.2777
 7513SOL    HW329825   2.372   1.779   3.940 -3.1108  2.9243  2.2624
 7513SOL    MW429826   2.425   1.846   3.924 -0.2285  0.3142  0.5758
 7514SOL     OW29827   4.863   3.811   4.188  0.0706  0.5152  0.0654
 7514SOL    HW229828   4.865   3.772   4.275  1.1180  0.7003  0.1431
 7514SOL    HW329829   4.922   3.887   4.195 -0.0400  0.6832 -0.7272
 7514SOL    MW429830   4.871   3.816   4.200 -0.1900 -0.4249 -0.3350
 7515SOL     OW29831   4.983   4.167   3.847  0.6977 -0.2093  0.5554
 7515SOL    HW229832   4.938   4.097   3.894  1.0469 -2.1183 -1.7661
 7515SOL    HW329833   5.072   4.134   3.835  1.1160  1.0273  0.1250
 7515SOL    MW429834   4.989   4.153   3.852 -0.1183 -0.3063  0.3192
 7516SOL     OW29835   5.407   5.862   6.254 -0.2526  0.0498  0.0413
 7516SOL    HW229836   5.417   5.956   6.270  0.9028  0.0203 -0.3567
 7516SOL    HW329837   5.325   5.838   6.295  0.0275  1.0061  1.1866
 7516SOL    MW429838   5.398   5.871   6.261 -0.0453  0.0562 -0.1760
 7517SOL     OW29839   3.184   2.275   5.402  0.1246 -0.4241  0.2267
 7517SOL    HW229840   3.152   2.365   5.397  1.3556  0.0110 -0.2694
 7517SOL    HW329841   3.200   2.251   5.311 -0.7376 -1.3651  0.3095
 7517SOL    MW429842   3.182   2.284   5.389 -0.0522  0.6755 -0.1562
 7518SOL     OW29843   4.130   3.856   1.576  0.1824  0.1944  0.5417
 7518SOL    HW229844   4.041   3.820   1.578  0.0375  0.3906 -1.3216
 7518SOL    HW329845   4.126   3.925   1.510  1.8034 -0.0181  0.1965
 7518SOL    MW429846   4.118   3.860   1.568  0.2751 -0.2875 -0.4644
 7519SOL     OW29847   1.575   1.596   0.578 -0.2758  0.2388 -0.1028
 7519SOL    HW229848   1.543   1.661   0.515 -0.6925  1.7571  1.5705
 7519SOL    HW329849   1.497   1.569   0.626  0.3333  0.8693  1.2856
 7519SOL    MW429850   1.560   1.601   0.576  0.7309 -0.0714  0.1762
 7520SOL     OW29851   1.973   0.090   0.149  0.0723 -0.6137 -0.4338
 7520SOL    HW229852   1.924   0.161   0.190  2.4222  0.3092  0.9355
 7520SOL    HW329853   1.975   0.113   0.056 -0.0685  0.5756 -0.1611
 7520SOL    MW429854   1.967   0.102   0.142 -0.2213 -0.3620 -0.1137
 7521SOL     OW29855   4.616   4.047   3.501  0.2740 -0.1434  0.5245
 7521SOL    HW229856   4.536   4.094   3.524  1.1506  1.1537  1.0975
 7521SOL    HW329857   4.597   4.006   3.417 -1.8162 -1.9768  1.7752
 7521SOL    MW429858   4.603   4.048   3.493 -0.1777  0.3923 -0.0520
 7522SOL     OW29859   2.727   2.498   4.795 -0.4815  0.0593  0.1990
 7522SOL    HW229860   2.679   2.494   4.712  1.3621  0.9538 -0.9978
 7522SOL    HW329861   2.718   2.411   4.832 -1.7105 -0.2438 -0.7335
 7522SOL    MW429862   2.719   2.486   4.789  0.4941  0.7703  0.1882
 7523SOL     OW29863   1.949   3.177   5.064  0.0427 -0.2828 -0.0738
 7523SOL    HW229864   1.982   3.210   5.148 -0.2336 -1.9710  0.7347
 7523SOL    HW329865   1.942   3.255   5.009  3.3545  0.4826  0.3700
 7523SOL    MW429866   1.953   3.192   5.068  0.2446  0.3395  0.5126
 7524SOL     OW29867   4.078   6.201   2.952 -0.0920  0.2141 -0.1321
 7524SOL    HW229868   4.074   6.291   2.917 -1.2239 -0.4943 -1.9721
 7524SOL    HW329869   3.987   6.180   2.974  0.2864 -0.2125  1.1204
 7524SOL    MW429870   4.065   6.210   2.950 -0.2935 -0.3914  0.1584
 7525SOL     OW29871   2.995   2.309   4.775  0.1842  0.0881 -0.0764
 7525SOL    HW229872   2.958   2.382   4.725  0.6527  1.0145  0.8608
 7525SOL    HW329873   3.024   2.246   4.710 -0.1437  0.7940 -0.9206
 7525SOL    MW429874   2.994   2.311   4.760  0.3376 -0.1155 -0.1662
 7526SOL     OW29875   0.112   2.678   5.493 -0.5843  0.3711  0.5139
 7526SOL    HW229876   0.176   2.701   5.426 -0.6288 -0.6568  0.1019
 7526SOL    HW329877   0.116   2.750   5.556  2.1530 -0.3834  1.3680
 7526SOL    MW429878   0.121   2.690   5.492  0.1631 -0.2185  0.0283
 7527SOL     OW29879   1.141   0.726   3.525  0.0767  0.3083  0.3221
 7527SOL    HW229880   1.079   0.763   3.588  0.9410  0.1297  1.3131
 7527SOL    HW329881   1.092   0.657   3.481 -0.4376  0.1862  1.0671
 7527SOL    MW429882   1.126   0.722   3.527 -0.1715 -0.4901  0.0874
 7528SOL     OW29883   3.765   3.868   1.827 -0.0946  0.2609  0.2437
 7528SOL    HW229884   3.823   3.846   1.755 -1.3883 -0.0197 -0.7564
 7528SOL    HW329885   3.763   3.964   1.828 -1.5487  0.2912 -1.3907
 7528SOL    MW429886   3.772   3.878   1.818 -0.3169 -0.1759 -0.0443
 7529SOL     OW29887   2.681   1.297   4.845  0.0964 -0.4426  0.4751
 7529SOL    HW229888   2.607   1.239   4.825  0.6096 -0.9840  0.1302
 7529SOL    HW329889   2.753   1.238   4.867  0.2229  0.0982  1.5532
 7529SOL    MW429890   2.681   1.282   4.845 -0.4634  0.0999  0.1471
 7530SOL     OW29891   1.468   2.138   3.219 -0.1735 -0.3931 -0.2413
 7530SOL    HW229892   1.397   2.190   3.180  0.9047  1.3647  0.0076
 7530SOL    HW329893   1.530   2.126   3.147 -0.0578 -0.6708 -0.0921
 7530SOL    MW429894   1.467   2.143   3.204 -0.2703 -0.3539  0.3406
 7531SOL     OW29895   4.082   6.308   4.694  0.2103 -0.0851 -0.2665
 7531SOL    HW229896   4.016   6.374   4.714  0.9431  0.0972  1.7015
 7531SOL    HW329897   4.087   6.253   4.772  0.9815 -1.3092 -1.1315
 7531SOL    MW429898   4.074   6.309   4.707  0.5718  0.0018 -0.5426
 7532SOL     OW29899   2.168   2.364   0.752 -0.5224 -0.4184 -0.7739
 7532SOL    HW229900   2.203   2.371   0.663 -0.7525 -1.7994 -1.0058
 7532SOL    HW329901   2.230   2.413   0.806  1.8772 -2.7508 -1.1762
 7532SOL    MW429902   2.181   2.371   0.748 -0.3531  0.5043  0.0034
 7533SOL     OW29903   4.331   2.395   5.436  0.3598  0.6280  0.0502
 7533SOL    HW229904   4.251   2.344   5.421  0.6821 -0.4403  1.6071
 7533SOL    HW329905   4.395   2.359   5.375  0.4534 -0.6030  0.8333
 7533SOL    MW429906   4.329   2.383   5.426  0.3675 -0.1261  0.3455
 7534SOL     OW29907   1.492   5.158   4.678 -0.5265 -0.7201  0.1968
 7534SOL    HW229908   1.446   5.107   4.744 -2.2067 -1.6228 -1.5851
 7534SOL    HW329909   1.513   5.095   4.609  1.7132  0.0719  0.0637
 7534SOL    MW429910   1.489   5.143   4.677  0.7406  0.0814 -0.1820
 7535SOL     OW29911   2.966   6.030   3.996  0.4366  0.2852 -0.1620
 7535SOL    HW229912   2.954   6.124   4.013  1.6129  0.5795 -0.8568
 7535SOL    HW329913   2.922   6.015   3.912  0.0622  0.1568  0.0525
 7535SOL    MW429914   2.959   6.041   3.987 -0.4680  0.2121  0.1166
 7536SOL     OW29915   1.664   1.806   0.733 -0.3537  0.2035  0.2985
 7536SOL    HW229916   1.756   1.816   0.709  0.1079 -1.2581  1.3131
 7536SOL    HW329917   1.630   1.741   0.672 -0.3446 -0.2356  0.7529
 7536SOL    MW429918   1.672   1.799   0.722 -0.6950  0.5979  0.6154
 7537SOL     OW29919   2.606   4.583   1.540  0.4194  0.5731  0.6751
 7537SOL    HW229920   2.645   4.669   1.521  1.5867  0.0114  0.4026
 7537SOL    HW329921   2.682   4.525   1.549 -0.2885 -0.1862  2.1118
 7537SOL    MW429922   2.621   4.587   1.539  0.2464  0.2113 -0.5547
 7538SOL     OW29923   1.251   2.873   4.850 -0.3321 -0.3366 -0.4775
 7538SOL    HW229924   1.185   2.903   4.913  0.5229  1.4662 -0.3567
 7538SOL    HW329925   1.266   2.782   4.873 -1.1458 -0.1561  0.9548
 7538SOL    MW429926   1.244   2.865   4.862 -0.8202 -0.0371 -0.4323
 7539SOL     OW29927   0.837   1.297   1.371 -0.0671  0.7026 -0.2081
 7539SOL    HW229928   0.838   1.233   1.443 -2.2921  0.0832 -0.6532
 7539SOL    HW329929   0.745   1.321   1.362  0.3723  1.9332 -1.8727
 7539SOL    MW429930   0.825   1.292   1.380  0.2509 -0.0198  0.5893
 7540SOL     OW29931   5.789   2.179   4.556 -0.3963 -0.8236 -0.1118
 7540SOL    HW229932   5.712   2.191   4.502 -0.9891 -1.2090  0.6313
 7540SOL    HW329933   5.764   2.213   4.642  1.4185  2.3879 -0.6698
 7540SOL    MW429934   5.776   2.185   4.561  0.0796  0.5612  0.2125
 7541SOL     OW29935   4.380   3.722   1.631 -0.3248  0.4377  0.0755
 7541SOL    HW229936   4.285   3.716   1.643 -0.3899 -1.3037 -0.8830
 7541SOL    HW329937   4.412   3.635   1.657  0.1683 -1.5721 -5.7467
 7541SOL    MW429938   4.372   3.710   1.636 -0.2211 -0.2728 -0.8575
 7542SOL     OW29939   2.626   0.700   1.242 -0.3520  0.0112 -0.0656
 7542SOL    HW229940   2.649   0.607   1.247  0.5985  0.2697  0.7979
 7542SOL    HW329941   2.702   0.741   1.200 -1.0621  0.3195 -1.1027
 7542SOL    MW429942   2.639   0.693   1.237 -0.6916  0.5499  0.1681
 7543SOL     OW29943   0.577   5.831   4.397 -0.1740 -0.1229  0.2758
 7543SOL    HW229944   0.599   5.740   4.414 -1.2019 -0.1873  1.3364
 7543SOL    HW329945   0.635   5.856   4.325 -1.1404 -2.1495 -1.3166
 7543SOL    MW429946   0.588   5.823   4.389  0.7782  0.6169 -0.3056
 7544SOL     OW29947   1.636   3.187   0.474 -0.2822 -0.6592  0.3276
 7544SOL    HW229948   1.721   3.183   0.430 -0.5921 -2.5515 -0.1935
 7544SOL    HW329949   1.651   3.144   0.558 -0.3742  0.3879  0.8884
 7544SOL    MW429950   1.649   3.181   0.479  0.4685 -0.4786 -0.1232
 7545SOL     OW29951   5.154   3.678   4.776 -0.8483 -0.3899  0.8935
 7545SOL    HW229952   5.199   3.642   4.700  1.0704 -0.0550  1.8120
 7545SOL    HW329953   5.072   3.713   4.741  0.3235  0.4620 -1.1676
 7545SOL    MW429954   5.149   3.678   4.762 -0.6545  0.3663 -0.4653
 7546SOL     OW29955   1.978   3.388   0.979 -0.3894  0.7235 -0.7765
 7546SOL    HW229956   1.960   3.463   0.923  0.1841  0.0530 -1.8969
 7546SOL    HW329957   1.976   3.313   0.920  1.4702  0.1338 -0.1620
 7546SOL    MW429958   1.976   3.388   0.964 -0.8897 -0.6021  0.9430
 7547SOL     OW29959   3.847   6.335   0.867  0.2887 -0.2870 -0.3259
 7547SOL    HW229960   3.761   6.355   0.904 -0.3291  1.9192 -2.6894
 7547SOL    HW329961   3.831   6.262   0.807  0.1231 -0.0254 -0.5978
 7547SOL    MW429962   3.834   6.328   0.864 -0.0750  0.1891  0.3278
 7548SOL     OW29963   0.026   3.748   3.137  0.0933 -0.2908 -0.2571
 7548SOL    HW229964  -0.015   3.678   3.187  3.4086 -0.9330  1.9390
 7548SOL    HW329965   0.001   3.828   3.182 -1.0004 -0.3513 -0.7292
 7548SOL    MW429966   0.018   3.749   3.149 -0.3139  0.4119 -0.5075
 7549SOL     OW29967   1.817   1.588   1.962  0.4071  0.2489  0.4550
 7549SOL    HW229968   1.854   1.559   1.878 -0.2410  0.6522  0.0211
 7549SOL    HW329969   1.725   1.606   1.943 -0.0309 -0.7450  1.5288
 7549SOL    MW429970   1.810   1.587   1.948 -0.1900  0.3858  0.5124
 7550SOL     OW29971   6.239   3.467   6.197  0.9053 -0.4559 -0.5748
 7550SOL    HW229972   6.192   3.436   6.119  0.6658 -2.1169  0.1864
 7550SOL    HW329973   6.324   3.496   6.163  0.1557  0.5489 -1.6775
 7550SOL    MW429974   6.244   3.467   6.182  0.1217 -0.0444  0.7084
 7551SOL     OW29975   5.407   1.571   2.036  0.2895 -0.5450 -0.1334
 7551SOL    HW229976   5.348   1.632   1.994  1.0753  0.6484  0.4447
 7551SOL    HW329977   5.493   1.612   2.030  0.4003 -0.0788  2.9701
 7551SOL    MW429978   5.411   1.584   2.030 -0.3658  0.2553 -0.0909
 7552SOL     OW29979   2.092   1.359   2.959  0.0084  0.1253 -0.7210
 7552SOL    HW229980   2.056   1.280   2.918  0.2112 -0.6145  0.4848
 7552SOL    HW329981   2.050   1.363   3.044  0.9019  0.6475 -0.2870
 7552SOL    MW429982   2.082   1.349   2.965 -0.1466  0.0278  0.0768
 7553SOL     OW29983   1.913   3.728   1.200  0.8653  0.4138 -0.6426
 7553SOL    HW229984   1.825   3.766   1.193  0.5266 -0.4374 -1.3048
 7553SOL    HW329985   1.900   3.635   1.181  1.8891  0.2460 -0.5803
 7553SOL    MW429986   1.900   3.720   1.196 -0.1758 -0.3305  0.7300
 7554SOL     OW29987   6.053   1.951   0.857 -0.4223 -0.6491 -0.0836
 7554SOL    HW229988   6.005   1.993   0.785  1.1702  1.0156 -0.2248
 7554SOL    HW329989   6.003   1.871   0.874 -1.9666 -0.1126 -1.7058
 7554SOL    MW429990   6.040   1.946   0.850 -0.1723 -0.8471 -0.5933
 7555SOL     OW29991   1.936   6.184   1.650  0.0491 -0.3927 -0.4756
 7555SOL    HW229992   1.907   6.243   1.581 -0.3067  0.5075  0.4325
 7555SOL    HW329993   1.980   6.113   1.603  0.7669  0.7348 -1.5617
 7555SOL    MW429994   1.938   6.182   1.635  0.0164  0.1803  0.0419
 7556SOL     OW29995   5.394   3.091   5.548 -0.4181 -0.2109 -0.0823
 7556SOL    HW229996   5.341   3.156   5.594 -1.4430 -1.1108  0.0728
 7556SOL    HW329997   5.380   3.010   5.597  0.3999 -0.6693 -0.5804
 7556SOL    MW429998   5.385   3.089   5.561  0.1981  0.0114 -0.3965
 7557SOL     OW29999   3.875   1.342   0.346 -0.5710  0.1084 -0.3678
 7557SOL    HW230000   3.829   1.361   0.264  2.1497  1.0947 -1.7711
 7557SOL    HW330001   3.852   1.416   0.403 -0.3774  0.8237 -1.1977
 7557SOL    MW430002   3.866   1.354   0.343 -0.2420  0.4613 -0.0289
 7558SOL     OW30003   4.217   5.579   3.843 -0.2471  0.0722  0.3939
 7558SOL    HW230004   4.251   5.626   3.767  0.2236  0.5732  0.9019
 7558SOL    HW330005   4.275   5.605   3.915 -0.3790 -0.7882  0.8210
 7558SOL    MW430006   4.229   5.589   3.843 -0.0681 -0.4710  0.2214
 7559SOL     OW30007   3.657   6.027   0.038  0.4060  0.5197  0.2271
 7559SOL    HW230008   3.576   5.984   0.066  0.2379  0.7624  0.1072
 7559SOL    HW330009   3.703   5.960  -0.012 -1.0458  1.2588 -2.2439
 7559SOL    MW430010   3.653   6.012   0.035 -0.5790 -0.0705  0.2927
 7560SOL     OW30011   2.970   1.016   1.606 -0.2800 -0.1665  0.2806
 7560SOL    HW230012   2.991   0.949   1.541  0.1067  0.0726  0.1559
 7560SOL    HW330013   3.009   0.983   1.687 -1.5119 -0.8904  0.6046
 7560SOL    MW430014   2.978   1.003   1.608 -0.1239  0.2051 -0.0098
 7561SOL     OW30015   3.957   0.130   0.758 -0.4643  0.0975 -0.1648
 7561SOL    HW230016   4.001   0.103   0.678  1.1175  0.8160  0.4203
 7561SOL    HW330017   3.920   0.050   0.794  2.6567 -1.1003  0.6713
 7561SOL    MW430018   3.958   0.116   0.752 -0.0284  0.1371 -0.4077
 7562SOL     OW30019   1.568   4.809   0.433  0.2071  0.4040 -0.6545
 7562SOL    HW230020   1.588   4.899   0.409 -3.4833  1.3140 -0.8117
 7562SOL    HW330021   1.516   4.775   0.360 -0.6483 -0.9720  0.5378
 7562SOL    MW430022   1.564   4.816   0.420  0.2123  0.2123  0.2471
 7563SOL     OW30023   2.952   2.628   2.841 -0.4172 -0.4869  0.5399
 7563SOL    HW230024   2.923   2.643   2.751 -0.0330 -3.3408 -0.1316
 7563SOL    HW330025   3.031   2.575   2.833 -0.1976 -0.5431  2.5602
 7563SOL    MW430026   2.959   2.623   2.829  0.1172  0.0142 -0.2209
 7564SOL     OW30027   5.834   1.868   4.147  0.2757 -0.1643  0.1438
 7564SOL    HW230028   5.760   1.817   4.180  0.2153 -1.1581 -1.4085
 7564SOL    HW330029   5.910   1.812   4.163  0.3534 -0.2656 -0.5583
 7564SOL    MW430030   5.834   1.854   4.153 -0.1487  0.0307 -0.3234
 7565SOL     OW30031   3.752   4.223   0.858 -0.1154  0.2011 -0.2898
 7565SOL    HW230032   3.803   4.195   0.782 -0.1652  1.0236 -0.6324
 7565SOL    HW330033   3.808   4.201   0.933 -0.6651 -1.9185 -0.4546
 7565SOL    MW430034   3.766   4.216   0.858  0.0957  0.0743  0.3195
 7566SOL     OW30035   5.002   2.022   1.680  0.1993 -0.1104  0.0250
 7566SOL    HW230036   5.045   2.024   1.765  0.5004 -0.9494 -0.1029
 7566SOL    HW330037   4.941   1.948   1.686 -2.4158  1.9628  0.7595
 7566SOL    MW430038   5.000   2.012   1.692 -0.1275  0.2632 -0.5609
 7567SOL     OW30039   5.391   1.279   3.229  0.1967  0.1663 -0.6442
 7567SOL    HW230040   5.391   1.305   3.321 -1.2601  0.5403 -0.7290
 7567SOL    HW330041   5.422   1.189   3.229 -1.2501 -0.3640  0.4017
 7567SOL    MW430042   5.395   1.271   3.241 -0.4008 -0.3833 -0.0120
 7568SOL     OW30043   5.815   4.558   5.425  0.2868 -0.6072 -0.0976
 7568SOL    HW230044   5.784   4.596   5.343 -0.4429 -0.4973  0.2234
 7568SOL    HW330045   5.780   4.615   5.493 -0.8084 -1.8098  0.3876
 7568SOL    MW430046   5.806   4.570   5.423  0.5293 -0.1085 -0.3031
 7569SOL     OW30047   6.213   4.719   1.055  0.8450 -0.0251  0.0178
 7569SOL    HW230048   6.281   4.683   1.114 -0.4146 -2.5491  0.0890
 7569SOL    HW330049   6.176   4.641   1.013 -2.2827  1.2138  0.2878
 7569SOL    MW430050   6.217   4.704   1.058 -0.2191 -0.5117 -0.3082
 7570SOL     OW30051   3.699   4.844   2.304  0.2650  0.0653 -0.5087
 7570SOL    HW230052   3.622   4.787   2.306  0.1635  0.2139 -0.2209
 7570SOL    HW330053   3.757   4.808   2.371  0.8532 -0.6172 -1.3655
 7570SOL    MW430054   3.697   4.832   2.313  0.1105 -0.4616 -0.0125
 7571SOL     OW30055   0.577   5.021   3.110 -0.0126 -0.1858 -0.1295
 7571SOL    HW230056   0.512   4.952   3.117 -0.2211 -0.0465 -0.7106
 7571SOL    HW330057   0.534   5.091   3.062 -0.2292  0.8672  1.4992
 7571SOL    MW430058   0.563   5.021   3.105  0.1780 -0.2722  0.7247
 7572SOL     OW30059   3.892   2.505   4.437 -0.0540  0.1462  0.6277
 7572SOL    HW230060   3.878   2.576   4.374  2.0713  0.3404  0.2826
 7572SOL    HW330061   3.983   2.479   4.424  0.1671 -0.5005  2.9246
 7572SOL    MW430062   3.902   2.511   4.427  0.4434 -0.2836 -0.3301
 7573SOL     OW30063   5.954   6.221   3.838  0.0610 -0.1159  0.1980
 7573SOL    HW230064   5.968   6.129   3.815 -1.8102 -0.5666  0.6993
 7573SOL    HW330065   5.945   6.266   3.754 -1.0716 -0.7672 -0.0435
 7573SOL    MW430066   5.955   6.215   3.824  0.4832  0.1697 -0.1368
 7574SOL     OW30067   3.204   4.160   5.984 -0.3274 -0.4735  0.6616
 7574SOL    HW230068   3.122   4.110   5.982 -0.8335  0.3707 -1.2330
 7574SOL    HW330069   3.243   4.146   5.898  1.4380 -0.6516  1.4402
 7574SOL    MW430070   3.198   4.151   5.973 -0.2504 -0.0860 -0.3122
 7575SOL     OW30071   6.119   5.402   3.482  0.3376  0.5457  0.1347
 7575SOL    HW230072   6.127   5.309   3.462 -0.3614  0.2612  1.1018
 7575SOL    HW330073   6.055   5.436   3.420 -2.0479 -0.3841  1.9449
 7575SOL    MW430074   6.112   5.394   3.471  0.5771  0.0942 -0.2801
 7576SOL     OW30075   0.151   2.443   2.535  0.3493 -0.0843  0.6656
 7576SOL    HW230076   0.186   2.394   2.461  0.0960 -0.6129  0.8926
 7576SOL    HW330077   0.215   2.431   2.605 -0.1400 -0.8477  1.0032
 7576SOL    MW430078   0.164   2.435   2.535 -0.2545  0.1543  0.5618
 7577SOL     OW30079   6.282   3.091   5.545 -0.4417 -0.6418 -0.2245
 7577SOL    HW230080   6.221   3.147   5.594 -1.4363 -1.1152 -0.8702
 7577SOL    HW330081   6.236   3.007   5.538 -0.6074 -0.4242 -2.4673
 7577SOL    MW430082   6.268   3.087   5.551 -0.7351 -0.0331 -0.3169
 7578SOL     OW30083   1.138   2.683   3.883  0.0617 -0.5824  0.2361
 7578SOL    HW230084   1.229   2.664   3.906  0.1887 -1.4487 -0.9331
 7578SOL    HW330085   1.143   2.729   3.799 -0.4559  1.6226  1.3352
 7578SOL    MW430086   1.150   2.687   3.875  0.1917 -0.0880  0.3897
 7579SOL     OW30087   1.412   2.477   0.761  0.2071  0.5916 -0.0030
 7579SOL    HW230088   1.334   2.422   0.771 -1.0182  2.3149  0.3678
 7579SOL    HW330089   1.447   2.485   0.850  0.5562  0.2012 -0.1008
 7579SOL    MW430090   1.406   2.471   0.774 -0.3503  0.3682 -0.2420
 7580SOL     OW30091   4.844   1.405   0.114 -0.0102  0.2540 -0.3861
 7580SOL    HW230092   4.803   1.492   0.115  0.2461  0.3881 -1.2438
 7580SOL    HW330093   4.817   1.366   0.197  0.8633  1.5996  0.5664
 7580SOL    MW430094   4.835   1.411   0.125 -0.3930  0.1502 -0.0761
 7581SOL     OW30095   4.309   3.391   2.280  0.9724 -0.7154 -0.6805
 7581SOL    HW230096   4.380   3.444   2.243  0.9962 -1.4284 -1.7080
 7581SOL    HW330097   4.259   3.452   2.335  1.8163  0.0211 -0.7118
 7581SOL    MW430098   4.311   3.406   2.282  0.1511 -0.0692 -0.2373
 7582SOL     OW30099   1.264   2.252   4.141  0.2906  0.4216 -0.0501
 7582SOL    HW230100   1.237   2.183   4.201  0.7300  1.3620  1.2896
 7582SOL    HW330101   1.348   2.282   4.175 -0.5071  2.5153  0.2432
 7582SOL    MW430102   1.272   2.247   4.153  0.4965 -0.0984  0.1897
 7583SOL     OW30103   2.320   4.959   1.209 -0.3611 -0.5203  0.0972
 7583SOL    HW230104   2.382   4.976   1.279  0.7697 -2.0147 -0.4794
 7583SOL    HW330105   2.351   4.878   1.169 -1.2697  0.0080 -1.8034
 7583SOL    MW430106   2.332   4.950   1.213  0.0506  0.1643 -0.3832
 7584SOL     OW30107   6.411   0.532   0.372 -0.0776 -0.7878  0.2158
 7584SOL    HW230108   6.375   0.449   0.341 -1.6527 -0.0365 -0.0462
 7584SOL    HW330109   6.476   0.507   0.437  0.7202 -2.2717 -1.0975
 7584SOL    MW430110   6.415   0.518   0.377 -0.4882 -0.4535 -0.4595
 7585SOL     OW30111   4.014   2.265   2.429 -0.0895  0.2184 -0.1239
 7585SOL    HW230112   4.034   2.191   2.371 -0.4534  0.6612 -0.8348
 7585SOL    HW330113   4.074   2.256   2.502 -0.6889 -1.2544  0.2194
 7585SOL    MW430114   4.024   2.254   2.431  0.0008  0.2387  0.0599
 7586SOL     OW30115   5.438   4.305   3.188 -0.3463  0.2788 -0.3237
 7586SOL    HW230116   5.355   4.323   3.144 -0.2496 -0.1245 -0.6783
 7586SOL    HW330117   5.452   4.211   3.177 -1.0467 -0.1279  1.8862
 7586SOL    MW430118   5.429   4.295   3.180 -0.1937 -0.2958 -0.0508
 7587SOL     OW30119   5.438   1.250   4.140 -0.1062  0.0101  0.4494
 7587SOL    HW230120   5.472   1.177   4.088 -0.6360  1.5245 -2.2158
 7587SOL    HW330121   5.497   1.254   4.216  0.9937 -2.0559 -0.2040
 7587SOL    MW430122   5.450   1.241   4.143 -0.3186  0.4015 -0.0175
 7588SOL     OW30123   4.855   2.931   5.021 -0.1277  0.7869  0.1670
 7588SOL    HW230124   4.842   2.931   4.926 -0.0473  0.7739  0.1558
 7588SOL    HW330125   4.792   2.995   5.054  1.1469  2.2252 -0.0782
 7588SOL    MW430126   4.845   2.940   5.013  0.1669  0.2768 -1.2296
 7589SOL     OW30127   1.347   4.406   1.364  0.6136 -0.0937 -0.0028
 7589SOL    HW230128   1.400   4.440   1.436  1.3921  0.8230 -0.9751
 7589SOL    HW330129   1.388   4.323   1.341  0.8736  0.0126  0.0691
 7589SOL    MW430130   1.359   4.399   1.370  0.6260  0.4285 -0.2731
 7590SOL     OW30131   5.599   5.361   4.145 -0.2322 -0.1961  0.4323
 7590SOL    HW230132   5.686   5.390   4.118 -1.4495  2.7407 -0.6826
 7590SOL    HW330133   5.576   5.293   4.081  0.3420  0.6370 -0.6930
 7590SOL    MW430134   5.607   5.356   4.133 -0.4576 -0.2129  0.0281
 7591SOL     OW30135   4.145   6.238   3.856 -0.4406 -0.4407  0.1502
 7591SOL    HW230136   4.135   6.146   3.832 -0.5618 -0.5081  0.4499
 7591SOL    HW330137   4.213   6.271   3.798  0.3169 -0.9839  0.7024
 7591SOL    MW430138   4.153   6.230   3.845  0.3422 -0.4171 -0.1681
 7592SOL     OW30139   0.508   0.509   3.758  0.2948 -0.2233  0.0625
 7592SOL    HW230140   0.486   0.523   3.666  0.2035  2.3403  0.3986
 7592SOL    HW330141   0.603   0.519   3.761  0.0374  2.7524  0.6183
 7592SOL    MW430142   0.517   0.512   3.746 -0.5147  0.0951 -0.1565
 7593SOL     OW30143   6.139   6.257   1.657 -0.4445  0.1355  0.3564
 7593SOL    HW230144   6.203   6.258   1.586  0.1872  0.0887  0.9241
 7593SOL    HW330145   6.173   6.193   1.719 -0.7958  0.4602  0.8895
 7593SOL    MW430146   6.152   6.248   1.656  0.9169 -0.1121  0.1362
 7594SOL     OW30147   2.455   0.599   0.416 -0.0267  0.5486 -0.1116
 7594SOL    HW230148   2.371   0.608   0.463 -0.3214  1.5737 -0.8034
 7594SOL    HW330149   2.489   0.688   0.412 -0.2432  0.5784 -2.2402
 7594SOL    MW430150   2.448   0.612   0.422 -0.2560 -0.0413  0.1130
 7595SOL     OW30151   4.474   0.362   1.716 -0.0153  0.2688 -0.2674
 7595SOL    HW230152   4.539   0.351   1.785  0.2715  0.6077 -0.4806
 7595SOL    HW330153   4.494   0.292   1.653  0.6106  0.8110 -0.6907
 7595SOL    MW430154   4.485   0.352   1.716 -0.3999 -0.0949  0.0694
 7596SOL     OW30155   2.945   0.870   5.782 -0.2018  0.0679 -0.1441
 7596SOL    HW230156   2.966   0.956   5.746 -1.1436  0.6110  0.5645
 7596SOL    HW330157   2.962   0.809   5.710 -0.3085  0.9381 -0.9178
 7596SOL    MW430158   2.950   0.873   5.768 -0.2825 -0.0318  0.1316
 7597SOL     OW30159   0.723   1.696   0.455  0.0501 -0.4164 -0.4478
 7597SOL    HW230160   0.641   1.660   0.421  0.2741  0.2260 -1.7568
 7597SOL    HW330161   0.720   1.680   0.549 -2.1722  0.7777 -0.2715
 7597SOL    MW430162   0.712   1.689   0.463  0.6813 -0.0885 -0.1210
 7598SOL     OW30163  -0.006   1.504   3.302  0.0368  0.1740  1.0102
 7598SOL    HW230164  -0.034   1.592   3.276 -0.2087 -0.1361  0.1761
 7598SOL    HW330165   0.031   1.467   3.222 -1.2885 -1.0512  0.9279
 7598SOL    MW430166  -0.005   1.511   3.288  0.5166 -0.3937 -0.1772
 7599SOL     OW30167   1.741   5.191   4.804  0.0359 -0.3208  0.0907
 7599SOL    HW230168   1.717   5.224   4.890 -0.2888 -2.7668  0.9919
 7599SOL    HW330169   1.662   5.145   4.773  0.7857 -1.1544 -0.6314
 7599SOL    MW430170   1.727   5.189   4.811  0.2329 -0.4142  0.3318
 7600SOL     OW30171   6.073   3.515   4.374  0.1843 -0.5610  0.4910
 7600SOL    HW230172   6.022   3.437   4.393 -1.1656  0.6277  2.0274
 7600SOL    HW330173   6.024   3.559   4.305 -0.1342 -0.0910  1.0147
 7600SOL    MW430174   6.060   3.511   4.367  0.0185  0.1432 -0.1199
 7601SOL     OW30175   5.060   4.556   5.565  0.1932 -0.4629 -0.1777
 7601SOL    HW230176   5.089   4.471   5.599 -0.7143 -1.1378 -1.0155
 7601SOL    HW330177   4.965   4.555   5.577  0.1478  0.3575 -0.3832
 7601SOL    MW430178   5.051   4.545   5.571  0.5338  0.8992  0.1856
 7602SOL     OW30179   2.337   6.093   5.065  0.0174 -0.3454 -0.0693
 7602SOL    HW230180   2.348   6.160   4.997  0.5042  0.1966  0.5305
 7602SOL    HW330181   2.305   6.016   5.017 -1.7884  0.6670 -0.6122
 7602SOL    MW430182   2.334   6.092   5.049  0.0263  0.1698 -0.3084
 7603SOL     OW30183   0.303   2.805   1.106 -0.1786 -0.2143 -0.1507
 7603SOL    HW230184   0.345   2.802   1.020 -0.5937  1.7118 -0.4514
 7603SOL    HW330185   0.274   2.715   1.121  0.6401 -0.7632 -1.6433
 7603SOL    MW430186   0.305   2.792   1.096 -0.3345  0.8012 -0.3601
 7604SOL     OW30187   1.461   0.480   6.155  0.1392 -0.8902 -0.1472
 7604SOL    HW230188   1.393   0.547   6.152 -0.6590 -1.6206  0.8784
 7604SOL    HW330189   1.452   0.433   6.072 -0.2655 -0.6569 -0.2373
 7604SOL    MW430190   1.451   0.482   6.144  0.3309  0.8329 -0.3572
 7605SOL     OW30191   6.031   0.630   2.604  0.3744  0.0083 -0.1685
 7605SOL    HW230192   5.966   0.591   2.662  0.2477  0.2739 -0.1322
 7605SOL    HW330193   6.081   0.689   2.659 -0.2110  0.8040 -0.4804
 7605SOL    MW430194   6.029   0.632   2.619 -0.1536  0.1607 -0.1162
 7606SOL     OW30195   5.268   2.615   3.149 -0.1708 -0.0178  1.1241
 7606SOL    HW230196   5.355   2.594   3.181 -0.9346  0.3507  3.6548
 7606SOL    HW330197   5.224   2.530   3.142  0.3865 -0.2213 -0.3255
 7606SOL    MW430198   5.273   2.601   3.152 -0.2005 -0.8733 -0.1158
 7607SOL     OW30199   2.172   5.688   5.986  0.2332  0.0822 -0.5174
 7607SOL    HW230200   2.238   5.743   6.029  1.2691 -1.5111 -0.0030
 7607SOL    HW330201   2.203   5.599   6.000 -1.4137 -0.6420 -1.3371
 7607SOL    MW430202   2.185   5.684   5.994  0.3451  0.0497  0.1681
 7608SOL     OW30203   2.278   6.214   2.028 -0.2958  0.6264  0.7631
 7608SOL    HW230204   2.192   6.221   1.986  0.0398  1.3471  0.1660
 7608SOL    HW330205   2.301   6.122   2.021 -0.3920  0.6710 -0.3830
 7608SOL    MW430206   2.270   6.203   2.021 -1.0625  0.7551 -0.1934
 7609SOL     OW30207   4.399   0.110   3.306  0.4897 -0.0316 -0.2730
 7609SOL    HW230208   4.488   0.143   3.299  0.5069 -0.2245 -1.2082
 7609SOL    HW330209   4.409   0.016   3.323  0.4549  0.0547  0.2437
 7609SOL    MW430210   4.412   0.102   3.307 -0.0992 -0.1930  0.7270
 7610SOL     OW30211   4.948   0.866   1.376  0.1753  0.0383 -0.4720
 7610SOL    HW230212   4.853   0.853   1.364  0.0996  0.6889 -0.5937
 7610SOL    HW330213   4.987   0.787   1.338 -0.3714 -0.8793  0.7752
 7610SOL    MW430214   4.940   0.854   1.369 -0.4902 -0.9794 -0.4340
 7611SOL     OW30215   2.357   1.167   6.200  0.5349  0.1089  0.1570
 7611SOL    HW230216   2.299   1.242   6.211  0.5300  0.5899 -2.4243
 7611SOL    HW330217   2.445   1.205   6.198  0.7729 -0.3216  1.5923
 7611SOL    MW430218   2.361   1.182   6.201  0.2396 -0.0628  0.2196
 7612SOL     OW30219   2.363   4.334   2.425  0.4603 -0.2236  0.3290
 7612SOL    HW230220   2.361   4.382   2.342 -1.3143 -1.3299 -0.3453
 7612SOL    HW330221   2.364   4.402   2.492  0.7697  0.7101 -0.5877
 7612SOL    MW430222   2.363   4.349   2.423 -0.0669 -0.2542 -0.5101
 7613SOL     OW30223   1.236   6.089   2.781  0.5359 -0.1630  0.0382
 7613SOL    HW230224   1.243   6.018   2.717 -0.0858  0.6389 -0.9677
 7613SOL    HW330225   1.151   6.076   2.822  1.1029 -0.9078  1.0194
 7613SOL    MW430226   1.226   6.078   2.778 -0.5325 -0.0745 -0.4635
 7614SOL     OW30227   4.840   4.682   4.539 -0.2260 -0.7200 -0.7411
 7614SOL    HW230228   4.829   4.744   4.467 -1.6936  0.6258  0.5828
 7614SOL    HW330229   4.926   4.704   4.575  0.0048 -0.6232 -1.3266
 7614SOL    MW430230   4.850   4.693   4.534 -0.2855 -0.1463 -0.0114
 7615SOL     OW30231   3.428   3.318   4.171  0.5725 -0.0529  0.5765
 7615SOL    HW230232   3.453   3.313   4.079  0.4367 -0.4022  0.5576
 7615SOL    HW330233   3.396   3.231   4.192  2.6435 -0.6530  1.5286
 7615SOL    MW430234   3.427   3.306   4.162  0.1039 -0.2288  0.7322
 7616SOL     OW30235   6.209   2.402   3.817  0.4302 -0.4256  0.0125
 7616SOL    HW230236   6.146   2.384   3.748 -0.3793  1.9050  0.0746
 7616SOL    HW330237   6.288   2.356   3.789 -0.5981 -1.5572 -1.1898
 7616SOL    MW430238   6.211   2.394   3.805  0.1869 -0.1317  0.0145
 7617SOL     OW30239   2.842   2.821   2.972 -0.0554 -0.9776  0.1624
 7617SOL    HW230240   2.900   2.766   2.919 -0.6036 -0.6652 -0.7782
 7617SOL    HW330241   2.863   2.797   3.063  2.0969 -0.3151 -0.1006
 7617SOL    MW430242   2.852   2.811   2.977 -0.3774 -0.5021  0.2976
 7618SOL     OW30243   1.367   5.785   1.976  0.0151  0.3035  0.2476
 7618SOL    HW230244   1.461   5.773   1.990  0.0563 -0.8116 -0.8741
 7618SOL    HW330245   1.345   5.726   1.904 -1.7891 -0.4409  1.3335
 7618SOL    MW430246   1.377   5.775   1.969  0.1274 -0.0559 -0.5530
 7619SOL     OW30247   4.341   5.154   0.276 -0.1289 -0.3228 -0.2800
 7619SOL    HW230248   4.286   5.134   0.201  0.9765 -1.5374 -0.7892
 7619SOL    HW330249   4.419   5.196   0.239  0.6931 -1.4633  0.1095
 7619SOL    MW430250   4.344   5.157   0.261 -0.1244  0.0555 -0.1201
 7620SOL     OW30251   4.179   1.789   1.652 -0.1076 -1.0744  0.2671
 7620SOL    HW230252   4.201   1.809   1.743 -1.8220 -1.0877  0.7209
 7620SOL    HW330253   4.223   1.705   1.635  1.6433 -0.2491  0.4942
 7620SOL    MW430254   4.188   1.780   1.662  0.3468  0.2410  0.4641
 7621SOL     OW30255   4.103   4.123   4.957  0.3750  0.2536 -0.0236
 7621SOL    HW230256   4.145   4.204   4.928  1.1262  0.2068  0.8892
 7621SOL    HW330257   4.113   4.123   5.052 -3.2795  1.1342  0.5297
 7621SOL    MW430258   4.110   4.134   4.966  0.3101  0.2061 -0.5366
 7622SOL     OW30259   0.168   0.387   5.373 -0.2944 -0.3405 -0.0007
 7622SOL    HW230260   0.176   0.459   5.310 -1.3555 -0.8698 -0.7822
 7622SOL    HW330261   0.212   0.314   5.330  0.1343 -0.3577  0.4642
 7622SOL    MW430262   0.175   0.387   5.359  0.3822  0.3273  0.4210
 7623SOL     OW30263   6.314   6.308   5.683 -1.0986 -0.5661 -0.2729
 7623SOL    HW230264   6.245   6.250   5.715 -0.9354 -0.6398 -0.0468
 7623SOL    HW330265   6.344   6.354   5.762 -1.7348  0.3725 -0.5646
 7623SOL    MW430266   6.309   6.306   5.698 -0.1713  0.7095 -0.4119
 7624SOL     OW30267   4.316   5.604   0.975  0.1480  0.0443  0.7461
 7624SOL    HW230268   4.400   5.579   0.938  0.1125  0.0042  0.6932
 7624SOL    HW330269   4.338   5.664   1.046  0.2897 -0.8918  1.5123
 7624SOL    MW430270   4.330   5.609   0.980 -0.1885  0.5913  0.5008
 7625SOL     OW30271   5.941   1.085   3.319 -0.1198 -0.1785  0.6228
 7625SOL    HW230272   5.853   1.121   3.317  0.4537  1.2607 -0.3573
 7625SOL    HW330273   5.999   1.161   3.319  1.1546 -1.0592 -1.3891
 7625SOL    MW430274   5.937   1.100   3.319  0.2858 -0.0720  0.5322
 7626SOL     OW30275   1.040   5.404   1.862  0.4700  0.4925 -0.5986
 7626SOL    HW230276   1.080   5.436   1.782  0.3673 -0.0512 -0.8735
 7626SOL    HW330277   0.946   5.406   1.844  0.2960  2.2961  0.2383
 7626SOL    MW430278   1.033   5.408   1.849 -0.2756 -0.1241  0.5625
 7627SOL     OW30279   2.328   5.455   5.918 -0.1429 -0.1140  0.0918
 7627SOL    HW230280   2.339   5.446   6.013 -2.0064  0.1506  0.3618
 7627SOL    HW330281   2.340   5.367   5.884 -0.1638 -0.3387  0.6545
 7627SOL    MW430282   2.331   5.442   5.926  0.1009  0.2492  0.4108
 7628SOL     OW30283   1.277   3.467   5.241  0.2547 -0.1635 -0.3564
 7628SOL    HW230284   1.274   3.462   5.145  1.9174  1.1443 -0.5116
 7628SOL    HW330285   1.366   3.440   5.264 -0.0556 -0.2493  0.8143
 7628SOL    MW430286   1.288   3.463   5.231 -0.1762  0.2859 -0.4065
 7629SOL     OW30287   5.873   5.390   1.201 -0.3373  0.1593 -0.1061
 7629SOL    HW230288   5.835   5.478   1.194  0.1235  0.3910  0.3117
 7629SOL    HW330289   5.934   5.384   1.128  0.4223  0.5830  0.4816
 7629SOL    MW430290   5.876   5.401   1.191  0.7152 -0.0097  0.6641
 7630SOL     OW30291   2.103   3.522   3.249 -0.4797  0.7541  0.2780
 7630SOL    HW230292   2.056   3.604   3.231  0.9888  1.6042  0.1916
 7630SOL    HW330293   2.173   3.546   3.309  0.1065 -0.4085  0.0978
 7630SOL    MW430294   2.106   3.536   3.254  0.2900  0.2530 -0.0700
 7631SOL     OW30295   2.727   1.012   4.588  0.4403  0.0192  0.6204
 7631SOL    HW230296   2.679   1.031   4.669  2.0841  0.0576  1.6538
 7631SOL    HW330297   2.764   0.925   4.602 -0.8209 -0.8181 -0.9353
 7631SOL    MW430298   2.726   1.003   4.601  0.2340  0.6443 -0.1465
 7632SOL     OW30299   3.839   4.836   0.292 -0.2943 -0.2684 -0.0158
 7632SOL    HW230300   3.836   4.798   0.380 -0.2868 -0.9910 -0.3197
 7632SOL    HW330301   3.756   4.812   0.252 -0.0046 -0.5605 -0.4511
 7632SOL    MW430302   3.828   4.828   0.299  0.4985 -0.0172 -0.5045
 7633SOL     OW30303   3.672   1.945   4.949  0.4750  0.3161  0.5923
 7633SOL    HW230304   3.683   2.009   4.879  0.8050 -0.9103 -0.5306
 7633SOL    HW330305   3.719   1.982   5.024  3.0285  0.2087 -0.8219
 7633SOL    MW430306   3.680   1.958   4.949  0.4892 -0.0936 -0.0644
 7634SOL     OW30307   5.350   0.940   3.814 -0.2744  0.3766 -0.0818
 7634SOL    HW230308   5.409   0.992   3.868 -0.6276  0.3819  0.2993
 7634SOL    HW330309   5.293   1.004   3.771 -0.7960  0.3086  0.4886
 7634SOL    MW430310   5.350   0.955   3.815 -0.4462 -0.5359  0.0282
 7635SOL     OW30311   0.494   2.761   0.898  0.1971 -0.1034 -0.5807
 7635SOL    HW230312   0.576   2.746   0.944  0.1019 -1.6016 -0.8549
 7635SOL    HW330313   0.459   2.673   0.882 -2.0721  0.4947  0.6256
 7635SOL    MW430314   0.500   2.747   0.902 -0.3877 -0.3632 -0.8375
 7636SOL     OW30315   5.197   5.790   5.307 -0.4886 -0.2946  0.2049
 7636SOL    HW230316   5.242   5.859   5.355  0.1415 -1.2182  0.9800
 7636SOL    HW330317   5.245   5.710   5.329 -0.5744 -0.8489 -1.4576
 7636SOL    MW430318   5.210   5.788   5.316  0.4075 -0.8306  0.3343
 7637SOL     OW30319   6.303   5.897   3.832  0.7685  0.4650 -0.1280
 7637SOL    HW230320   6.224   5.920   3.881 -0.0871 -1.6032 -0.4101
 7637SOL    HW330321   6.370   5.884   3.898  0.3169  0.2410  0.2951
 7637SOL    MW430322   6.301   5.898   3.847 -0.0413  0.5139 -0.2114
 7638SOL     OW30323   1.616   2.215   1.729 -0.1520  0.1893 -0.2873
 7638SOL    HW230324   1.548   2.148   1.737  0.3534 -0.4673 -1.2161
 7638SOL    HW330325   1.592   2.282   1.793 -0.9230 -0.6651  0.3479
 7638SOL    MW430326   1.604   2.215   1.738 -0.1835  0.1894  0.5184
 7639SOL     OW30327   1.727   2.578   5.150  0.5915 -0.0355 -0.2621
 7639SOL    HW230328   1.726   2.590   5.245  0.3504  0.7437 -0.3547
 7639SOL    HW330329   1.803   2.627   5.120 -0.2879  1.1828 -0.6249
 7639SOL    MW430330   1.737   2.586   5.159  0.3059  0.0609  0.0235
 7640SOL     OW30331   4.081   0.669   3.373  0.1944 -0.0608  0.6720
 7640SOL    HW230332   4.054   0.687   3.463 -0.2230 -1.5128  0.8711
 7640SOL    HW330333   4.163   0.621   3.381  0.3368  0.1106  0.2648
 7640SOL    MW430334   4.088   0.665   3.386  0.5427 -0.6656 -0.1599
 7641SOL     OW30335   3.007   6.089   4.472 -0.1958 -0.3130 -0.3603
 7641SOL    HW230336   3.092   6.133   4.484 -0.8899  1.1340 -0.4808
 7641SOL    HW330337   3.019   6.003   4.511  1.4352 -0.2710 -0.6836
 7641SOL    MW430338   3.020   6.084   4.479  0.4834  0.0571 -0.1136
 7642SOL     OW30339   4.997   2.689   1.107 -0.3326  0.0700  0.2940
 7642SOL    HW230340   4.945   2.768   1.125 -0.1943 -0.2700  2.4253
 7642SOL    HW330341   5.079   2.703   1.154 -0.4678 -1.5095  1.0344
 7642SOL    MW430342   5.001   2.701   1.115 -0.6859 -0.3529  0.2445
 7643SOL     OW30343   5.883   1.729   0.905 -0.9673  0.3104  0.5662
 7643SOL    HW230344   5.879   1.711   0.811  0.5746 -0.0580  0.5397
 7643SOL    HW330345   5.881   1.643   0.946  0.0705  0.3613  0.7629
 7643SOL    MW430346   5.882   1.716   0.898  0.0318 -0.3939  0.2631
 7644SOL     OW30347   1.312   1.072   4.796 -0.2439  0.4425 -0.1092
 7644SOL    HW230348   1.312   1.168   4.797 -1.1709  0.4372  0.3973
 7644SOL    HW330349   1.236   1.048   4.744  0.9449 -0.0271 -1.7148
 7644SOL    MW430350   1.302   1.081   4.789 -1.0451 -0.0972  0.6058
 7645SOL     OW30351   2.275   1.919   0.695 -0.2488  0.3693  0.1691
 7645SOL    HW230352   2.263   1.995   0.639  1.5269  1.0078  0.5877
 7645SOL    HW330353   2.347   1.870   0.655 -1.6943 -1.4291 -0.3886
 7645SOL    MW430354   2.282   1.922   0.683 -0.2939 -0.0675 -0.6377
 7646SOL     OW30355   5.104   2.807   4.335 -0.1206  0.2313  0.7075
 7646SOL    HW230356   5.192   2.828   4.365 -0.0411  1.0998 -0.0987
 7646SOL    HW330357   5.074   2.738   4.395  1.5281 -0.8844  0.3063
 7646SOL    MW430358   5.111   2.800   4.347 -0.5809  0.4759 -0.1834
 7647SOL     OW30359   0.738   0.479   4.335 -0.4301  0.2715  0.2601
 7647SOL    HW230360   0.673   0.550   4.338 -0.4581  0.2165  1.0277
 7647SOL    HW330361   0.759   0.471   4.242 -1.6686  0.1688 -0.0329
 7647SOL    MW430362   0.732   0.488   4.323 -0.1504  0.2299  0.6807
 7648SOL     OW30363   0.252   5.361   0.455  0.1840 -0.3405 -0.0569
 7648SOL    HW230364   0.333   5.356   0.404  0.0254 -1.3325 -0.2381
 7648SOL    HW330365   0.259   5.443   0.504  0.5025  0.4541 -1.3910
 7648SOL    MW430366   0.264   5.371   0.455  0.9992  0.3803  0.0037
 7649SOL     OW30367   5.655   5.840   1.812 -0.0646 -0.2352 -0.1407
 7649SOL    HW230368   5.688   5.794   1.735  0.8008  1.7184 -0.9900
 7649SOL    HW330369   5.709   5.918   1.819 -1.6417  0.8130  1.0919
 7649SOL    MW430370   5.666   5.844   1.803 -0.0931 -0.6825 -0.4290
 7650SOL     OW30371   0.537   4.255   3.898  0.1331  0.2909 -0.4445
 7650SOL    HW230372   0.445   4.242   3.920  0.2957  0.3689  0.3043
 7650SOL    HW330373   0.561   4.337   3.941  1.1838 -0.9119  1.4418
 7650SOL    MW430374   0.528   4.264   3.907 -0.4257  0.8114 -0.5435
 7651SOL     OW30375   1.112   4.021   5.576  1.0168 -0.8296  0.0704
 7651SOL    HW230376   1.023   3.995   5.551 -0.0205  1.8508  0.6472
 7651SOL    HW330377   1.128   4.102   5.526  2.4881 -0.3800  1.2031
 7651SOL    MW430378   1.102   4.028   5.566  0.4582 -0.7835  0.5265
 7652SOL     OW30379   2.959   5.932   6.149 -0.1195  0.0913 -0.4348
 7652SOL    HW230380   3.006   5.856   6.183  1.1173  0.0203 -2.1376
 7652SOL    HW330381   3.002   5.951   6.065  0.8870  3.8413  0.7473
 7652SOL    MW430382   2.970   5.924   6.142  0.1262 -0.2589 -0.0942
 7653SOL     OW30383   2.973   6.065   2.566 -0.3845 -0.7073  0.2286
 7653SOL    HW230384   2.934   6.150   2.546  1.5239  0.3043  0.5461
 7653SOL    HW330385   2.954   6.011   2.489 -3.2528 -0.6571  0.7997
 7653SOL    MW430386   2.966   6.069   2.553  0.2244 -0.4346 -0.2171
 7654SOL     OW30387   2.792   5.656   5.897 -0.4455 -0.5993 -0.1466
 7654SOL    HW230388   2.788   5.604   5.978 -0.7363 -0.5406 -0.1224
 7654SOL    HW330389   2.705   5.647   5.859 -0.8731  0.7968  0.4271
 7654SOL    MW430390   2.780   5.648   5.903 -0.1820  0.1363 -0.9282
 7655SOL     OW30391   2.880   1.553   2.647 -0.0247 -0.0000 -0.2155
 7655SOL    HW230392   2.904   1.465   2.677  2.7412  0.9494  0.7628
 7655SOL    HW330393   2.826   1.539   2.570  0.7755 -2.5646 -0.3970
 7655SOL    MW430394   2.876   1.540   2.641 -0.2903 -0.2751  0.3717
 7656SOL     OW30395   5.549   1.042   3.275 -0.1138  0.3131 -0.4797
 7656SOL    HW230396   5.620   1.100   3.302  0.1116 -0.2299  0.0934
 7656SOL    HW330397   5.575   1.011   3.188  1.1079 -1.0872  0.3487
 7656SOL    MW430398   5.562   1.046   3.267  0.4439 -0.1022  0.4774
 7657SOL     OW30399   2.193   5.360   5.447  0.0761  0.3406  0.0489
 7657SOL    HW230400   2.109   5.378   5.490  0.4917 -0.2979  1.1649
 7657SOL    HW330401   2.239   5.444   5.449 -0.6673  0.7832 -0.8935
 7657SOL    MW430402   2.188   5.373   5.453 -0.1501  0.7591  0.5262
 7658SOL     OW30403   5.917   2.523   2.062 -0.9421 -0.6761  0.1371
 7658SOL    HW230404   5.834   2.515   2.109 -1.3552 -0.1025 -0.4867
 7658SOL    HW330405   5.982   2.535   2.132 -1.5666  0.2993  0.5711
 7658SOL    MW430406   5.915   2.523   2.078  0.2446  0.0394  0.4343
 7659SOL     OW30407   0.969   2.632   5.490  0.2179  0.2134  0.0813
 7659SOL    HW230408   1.060   2.623   5.518  0.6345 -0.4052 -1.3513
 7659SOL    HW330409   0.918   2.629   5.570  1.4173 -0.1469  0.8514
 7659SOL    MW430410   0.975   2.631   5.504 -0.1505 -0.2527 -0.5600
 7660SOL     OW30411   1.705   4.567   4.864 -0.3615  0.1014  0.2035
 7660SOL    HW230412   1.629   4.624   4.875 -0.1319  0.0006  2.8195
 7660SOL    HW330413   1.669   4.478   4.869 -0.1177  0.0522  1.1704
 7660SOL    MW430414   1.690   4.563   4.866  0.3053  0.0443  0.1770
 7661SOL     OW30415   3.919   5.716   5.869 -0.6130 -0.2352 -0.3246
 7661SOL    HW230416   3.825   5.714   5.887 -0.3394  1.2251  1.5408
 7661SOL    HW330417   3.937   5.806   5.843  0.2876 -0.4879 -0.6043
 7661SOL    MW430418   3.909   5.727   5.868  0.2460  0.1175  0.2825
 7662SOL     OW30419   4.409   2.124   2.866 -0.7795  1.0694  0.0261
 7662SOL    HW230420   4.458   2.064   2.923  0.1392  1.3798 -0.4030
 7662SOL    HW330421   4.413   2.083   2.780  0.4130  2.0163 -0.4044
 7662SOL    MW430422   4.416   2.111   2.862 -0.2457 -0.3319 -0.3449
 7663SOL     OW30423   0.373   3.940   2.613 -0.2370  0.6132  0.6444
 7663SOL    HW230424   0.329   3.855   2.601  0.1838  0.3321  1.0477
 7663SOL    HW330425   0.466   3.920   2.602 -0.0175  0.7521  2.1090
 7663SOL    MW430426   0.380   3.926   2.610  0.2258  0.3489 -0.4938
 7664SOL     OW30427   5.965   4.568   2.095  0.3389 -0.0569 -0.2654
 7664SOL    HW230428   5.996   4.488   2.136  1.6111 -0.3285 -1.6646
 7664SOL    HW330429   5.994   4.561   2.003 -3.9116 -0.3321 -1.7960
 7664SOL    MW430430   5.973   4.557   2.088 -0.5920  0.1425 -0.6008
 7665SOL     OW30431   0.791   6.392   0.483 -0.4646  0.1270 -0.5417
 7665SOL    HW230432   0.805   6.304   0.449  0.5829  0.0348  0.0852
 7665SOL    HW330433   0.794   6.448   0.406  2.1051 -0.0433 -0.6621
 7665SOL    MW430434   0.793   6.388   0.468  0.1223  0.4827 -0.2500
 7666SOL     OW30435   1.910   3.919   5.987 -0.4894  0.0844  0.5565
 7666SOL    HW230436   1.976   3.906   6.055  0.3954  1.2395 -0.0458
 7666SOL    HW330437   1.906   3.835   5.941 -0.7197 -0.5401  1.6868
 7666SOL    MW430438   1.918   3.907   5.990 -0.5047 -0.2598  0.0275
 7667SOL     OW30439   0.481   4.819   2.146 -0.1732 -0.0952 -0.0275
 7667SOL    HW230440   0.423   4.865   2.085 -0.7930  0.3175  0.8451
 7667SOL    HW330441   0.429   4.745   2.177  0.5269 -0.9297 -0.8004
 7667SOL    MW430442   0.467   4.816   2.142  0.4296 -0.1731 -0.1362
 7668SOL     OW30443   3.372   1.239   5.798  0.0148 -0.2886  0.3378
 7668SOL    HW230444   3.351   1.146   5.803  0.2301 -0.3694 -0.1277
 7668SOL    HW330445   3.298   1.284   5.839 -0.3877 -0.6350 -0.0084
 7668SOL    MW430446   3.359   1.233   5.804  0.3574  0.2516  0.1314
 7669SOL     OW30447   5.642   1.683   0.181 -0.1013  0.0626  0.5347
 7669SOL    HW230448   5.596   1.693   0.265 -0.6610  1.2543  0.1080
 7669SOL    HW330449   5.725   1.642   0.204 -0.0938  0.6998  1.7302
 7669SOL    MW430450   5.647   1.679   0.196 -0.0242 -0.3193  0.0331
 7670SOL     OW30451   0.739   5.000   4.314  0.1361 -0.2347  0.2003
 7670SOL    HW230452   0.800   4.933   4.281  0.1843  0.3077 -0.8579
 7670SOL    HW330453   0.792   5.055   4.371  0.4850 -0.1463 -0.2035
 7670SOL    MW430454   0.754   4.998   4.317 -0.2284  0.6251 -0.2353
 7671SOL     OW30455   4.612   4.596   3.104  0.0582 -1.0677  0.2629
 7671SOL    HW230456   4.591   4.520   3.157 -0.1522 -0.8098  0.5477
 7671SOL    HW330457   4.608   4.564   3.013  0.6344 -1.5594  0.4033
 7671SOL    MW430458   4.609   4.582   3.099 -0.1858  0.5485  0.1892
 7672SOL     OW30459   1.316   6.283   0.605 -0.1071  0.0555  0.3886
 7672SOL    HW230460   1.254   6.217   0.573  1.0064 -0.4863 -0.7760
 7672SOL    HW330461   1.379   6.233   0.658  1.4810 -0.1377 -1.5268
 7672SOL    MW430462   1.316   6.268   0.608  0.9383 -0.1321  0.2520
 7673SOL     OW30463   5.300   0.409   0.748  0.1925  0.0663 -0.5020
 7673SOL    HW230464   5.259   0.407   0.661  0.9059 -1.4435 -0.8450
 7673SOL    HW330465   5.384   0.365   0.736 -0.1840 -1.2413  1.1764
 7673SOL    MW430466   5.305   0.403   0.735  0.4747  0.2717 -0.0187
 7674SOL     OW30467   5.344   1.017   0.459  0.2428 -0.2625 -0.0004
 7674SOL    HW230468   5.302   0.967   0.389  0.0983 -0.0907 -0.0380
 7674SOL    HW330469   5.432   1.033   0.427  0.8533 -1.9409  0.7230
 7674SOL    MW430470   5.350   1.012   0.445  0.2115 -0.3661 -0.0337
 7675SOL     OW30471   2.334   4.707   2.911 -0.3290  0.0526 -0.1087
 7675SOL    HW230472   2.349   4.757   2.831  1.5938 -1.3705 -0.7043
 7675SOL    HW330473   2.290   4.768   2.970  1.2655  2.2348 -1.0545
 7675SOL    MW430474   2.330   4.722   2.908  0.2545 -0.3967 -1.0549
 7676SOL     OW30475   3.295   2.439   3.665 -0.6053  0.4445  0.0920
 7676SOL    HW230476   3.362   2.506   3.676  0.5854 -0.6568 -0.1320
 7676SOL    HW330477   3.236   2.474   3.598  1.5493  0.1518 -2.0902
 7676SOL    MW430478   3.296   2.452   3.658  0.0226  0.3051  0.5338
 7677SOL     OW30479   6.187   5.861   0.826  0.4840 -0.3057 -0.2355
 7677SOL    HW230480   6.167   5.793   0.762  1.4025 -0.4199 -0.4148
 7677SOL    HW330481   6.270   5.833   0.865  1.6280  1.4020 -1.3010
 7677SOL    MW430482   6.195   5.848   0.823 -0.3039 -0.1146  0.1273
 7678SOL     OW30483   5.491   1.151   4.553 -0.3397  0.5914 -0.0240
 7678SOL    HW230484   5.555   1.170   4.484  0.9931  0.4492  1.1170
 7678SOL    HW330485   5.530   1.079   4.603 -1.2727  0.6686  0.8559
 7678SOL    MW430486   5.505   1.144   4.551 -0.3067 -0.1390 -0.4576
 7679SOL     OW30487   3.760   0.288   2.384  0.5264  0.6840  0.3627
 7679SOL    HW230488   3.726   0.245   2.463 -1.4044 -0.1363 -0.8598
 7679SOL    HW330489   3.734   0.231   2.312  2.2970  1.3873 -0.9063
 7679SOL    MW430490   3.752   0.275   2.385 -0.2119  0.1379 -0.2626
 7680SOL     OW30491   0.700   1.074   2.976 -0.0727  0.2721 -0.0174
 7680SOL    HW230492   0.613   1.102   2.945 -0.3495 -0.0866  0.4235
 7680SOL    HW330493   0.706   1.108   3.065  0.7163  1.2793 -0.4349
 7680SOL    MW430494   0.689   1.082   2.983  0.1285 -0.1778  0.1852
 7681SOL     OW30495   3.630   0.767   3.643  0.2082 -0.0680 -0.2392
 7681SOL    HW230496   3.665   0.683   3.614  1.7204  1.4744 -3.3631
 7681SOL    HW330497   3.697   0.801   3.703  0.9146  0.0233 -1.0572
 7681SOL    MW430498   3.644   0.760   3.647 -0.4052  0.0465 -0.4513
 7682SOL     OW30499   1.767   2.961   5.024 -0.3616 -0.0710 -0.0527
 7682SOL    HW230500   1.810   3.044   5.046 -0.6409 -0.5387  2.6564
 7682SOL    HW330501   1.695   2.985   4.966  0.3089  1.4279 -0.2859
 7682SOL    MW430502   1.763   2.975   5.019  0.5571  0.8925  0.0248
 7683SOL     OW30503   4.074   1.495   5.412  0.6876 -0.1134 -0.7145
 7683SOL    HW230504   4.025   1.414   5.401 -1.3379  0.6921  1.6621
 7683SOL    HW330505   4.090   1.525   5.322  1.0067 -2.7665 -1.6412
 7683SOL    MW430506   4.070   1.488   5.398  0.0592  0.4544  0.4373
 7684SOL     OW30507   0.024   3.479   4.454 -0.3661  0.2404 -0.0373
 7684SOL    HW230508  -0.006   3.518   4.372  2.7613 -0.8754 -1.9200
 7684SOL    HW330509   0.069   3.551   4.499 -2.6179  1.0142  1.0993
 7684SOL    MW430510   0.026   3.494   4.449  0.7013 -0.3224  0.0740
 7685SOL     OW30511   4.733   5.624   0.479  0.4668 -0.4512  0.0169
 7685SOL    HW230512   4.775   5.545   0.513  0.7779 -0.6955 -0.9046
 7685SOL    HW330513   4.762   5.694   0.537  0.0804 -1.0268  0.9232
 7685SOL    MW430514   4.742   5.623   0.491  0.6008  0.1663  0.4144
 7686SOL     OW30515   1.748   4.206   2.104 -0.1175  0.0821 -0.1732
 7686SOL    HW230516   1.674   4.230   2.047  0.5898  0.2786 -1.0237
 7686SOL    HW330517   1.718   4.229   2.192 -0.7912  0.8502 -0.5853
 7686SOL    MW430518   1.734   4.212   2.108  0.2251 -0.2799  0.2919
 7687SOL     OW30519   3.060   4.417   3.577  0.2615  0.8975 -0.0940
 7687SOL    HW230520   3.011   4.341   3.545  1.1508  0.1618  0.2612
 7687SOL    HW330521   3.091   4.391   3.663  0.3453  1.7773  0.1512
 7687SOL    MW430522   3.058   4.404   3.584 -0.0252  0.1968 -0.0707
 7688SOL     OW30523   3.683   6.315   2.417  0.0477 -0.1800  0.0697
 7688SOL    HW230524   3.717   6.228   2.393  1.5412  0.4163 -0.0757
 7688SOL    HW330525   3.638   6.301   2.500  0.9202 -0.9665  0.4259
 7688SOL    MW430526   3.682   6.301   2.425 -0.7084 -0.0420 -0.0540
 7689SOL     OW30527   0.690   4.653   4.767 -0.3047  0.7084 -0.1364
 7689SOL    HW230528   0.688   4.705   4.687  0.1850 -0.4008 -0.9000
 7689SOL    HW330529   0.716   4.566   4.738 -2.3719 -0.3343  0.8938
 7689SOL    MW430530   0.693   4.648   4.753  0.1346  0.3759  0.6668
 7690SOL     OW30531   1.735   1.377   0.230 -0.4751  0.0720  0.1225
 7690SOL    HW230532   1.803   1.432   0.194  0.5689 -1.1027  0.2417
 7690SOL    HW330533   1.724   1.408   0.320 -0.4416  0.5669 -0.0413
 7690SOL    MW430534   1.742   1.388   0.237  0.5222  0.6448 -0.2517
 7691SOL     OW30535   0.592   0.673   5.911  0.5469  0.5413  0.1510
 7691SOL    HW230536   0.635   0.594   5.942 -2.6428 -1.1788  0.6585
 7691SOL    HW330537   0.533   0.698   5.983 -1.4414  0.9772 -1.5433
 7691SOL    MW430538   0.590   0.666   5.925  0.0629  0.1598  0.1869
 7692SOL     OW30539   3.715   4.017   3.931 -0.0134 -0.2236  0.0880
 7692SOL    HW230540   3.781   4.004   3.864 -0.4286 -1.0449 -0.1718
 7692SOL    HW330541   3.701   3.930   3.969 -0.5719  0.0315  0.4905
 7692SOL    MW430542   3.721   4.003   3.927 -0.3442 -0.2065 -0.1296
 7693SOL     OW30543   2.804   6.115   1.176  0.3577 -0.4849  0.2327
 7693SOL    HW230544   2.859   6.048   1.216  0.1915 -0.9828 -0.3524
 7693SOL    HW330545   2.822   6.107   1.082  1.1805  1.0438  0.2296
 7693SOL    MW430546   2.814   6.105   1.169  0.2432  0.2444  0.2079
 7694SOL     OW30547   0.502   1.638   5.407 -0.0503 -0.2581  0.3547
 7694SOL    HW230548   0.500   1.548   5.439  0.1981  0.0228  1.1959
 7694SOL    HW330549   0.594   1.661   5.405 -0.1902  0.7126  2.3623
 7694SOL    MW430550   0.514   1.629   5.411  0.3801  0.0897  0.4039
 7695SOL     OW30551   1.308   5.965   3.694 -0.2887 -0.4247  0.4987
 7695SOL    HW230552   1.318   6.022   3.770  0.0297 -1.2397  1.0850
 7695SOL    HW330553   1.289   5.879   3.731 -0.6876 -0.7253 -0.3665
 7695SOL    MW430554   1.307   5.961   3.709  0.1000  0.1476 -0.5412
 7696SOL     OW30555   1.765   1.633   6.316 -0.0702 -0.2667 -0.6833
 7696SOL    HW230556   1.788   1.573   6.245  2.7390  1.9255 -1.8369
 7696SOL    HW330557   1.824   1.609   6.388  0.4089  0.4618 -0.8185
 7696SOL    MW430558   1.776   1.622   6.316 -0.2201 -0.0285  0.0560
 7697SOL     OW30559   2.900   5.163   4.103  0.5206 -0.2808 -0.6332
 7697SOL    HW230560   2.953   5.144   4.026  1.8035 -2.0093  0.5911
 7697SOL    HW330561   2.851   5.242   4.080  1.2942 -0.4133 -2.9719
 7697SOL    MW430562   2.901   5.171   4.090  0.4897 -0.1208 -0.3542
 7698SOL     OW30563   2.582   6.048   0.328  0.2871 -0.0642 -0.0393
 7698SOL    HW230564   2.503   6.068   0.277  0.3497 -2.1855 -1.1074
 7698SOL    HW330565   2.595   6.124   0.384 -0.3822  1.9740 -2.4821
 7698SOL    MW430566   2.573   6.061   0.329 -0.0314 -0.3608 -0.3303
 7699SOL     OW30567   6.108   5.519   2.594  0.0422  0.3048  0.3990
 7699SOL    HW230568   6.089   5.426   2.590  1.6242 -0.1053  1.3554
 7699SOL    HW330569   6.182   5.526   2.655  1.8956  1.8459 -1.8013
 7699SOL    MW430570   6.115   5.508   2.601 -0.7590  0.3477 -0.0537
 7700SOL     OW30571   5.101   1.376   0.051  0.1815 -0.0091  0.7351
 7700SOL    HW230572   5.108   1.281   0.036 -0.9416 -0.0787  0.5993
 7700SOL    HW330573   5.008   1.392   0.062  0.0360  1.4521 -1.8233
 7700SOL    MW430574   5.090   1.365   0.050  0.2816  0.5191 -0.2783
 7701SOL     OW30575   0.197   2.868   0.309 -0.0376  0.7270  0.3547
 7701SOL    HW230576   0.282   2.835   0.281  0.1319  0.6267  0.9625
 7701SOL    HW330577   0.143   2.790   0.318 -0.4315  0.8512 -0.7652
 7701SOL    MW430578   0.201   2.853   0.307 -0.4222 -0.1108  0.4116
 7702SOL     OW30579   2.447   4.560   2.566  0.2825  0.1350  0.0948
 7702SOL    HW230580   2.499   4.556   2.647  0.3643  1.5610  0.1376
 7702SOL    HW330581   2.508   4.592   2.500 -0.3028  0.9738 -0.0534
 7702SOL    MW430582   2.462   4.563   2.568 -0.3454  0.7512  0.1561
 7703SOL     OW30583   1.801   0.618   2.655 -0.1781  0.2312  0.3705
 7703SOL    HW230584   1.834   0.683   2.717 -0.8468  0.7157  0.2253
 7703SOL    HW330585   1.872   0.609   2.590 -0.9710  2.5776 -0.9398
 7703SOL    MW430586   1.815   0.625   2.654  0.1534  0.0074  0.6217
 7704SOL     OW30587   3.130   1.394   5.624  0.7057  0.6988 -0.0317
 7704SOL    HW230588   3.065   1.401   5.694 -0.1159  1.8646 -0.8682
 7704SOL    HW330589   3.187   1.470   5.636  1.0194  0.4959 -0.2016
 7704SOL    MW430590   3.129   1.405   5.635  1.0506 -0.2488  0.4392
 7705SOL     OW30591   5.387   6.406   2.589 -0.1363 -0.2757  0.2349
 7705SOL    HW230592   5.427   6.360   2.663 -0.5851 -0.8811  0.1052
 7705SOL    HW330593   5.327   6.469   2.630 -0.0432 -0.2921  0.3956
 7705SOL    MW430594   5.384   6.409   2.604 -0.2139  0.0549 -0.4435
 7706SOL     OW30595   4.262   5.551   6.360  0.0420 -0.1723  0.3028
 7706SOL    HW230596   4.283   5.633   6.315 -0.4010 -0.1222  0.1816
 7706SOL    HW330597   4.218   5.579   6.441 -1.6553 -0.3061 -0.5275
 7706SOL    MW430598   4.259   5.565   6.365  0.2222  0.5455 -0.2629
 7707SOL     OW30599   6.282   6.236   4.902 -0.3304 -0.7554  0.3192
 7707SOL    HW230600   6.335   6.292   4.958  0.1001  0.5614 -1.3006
 7707SOL    HW330601   6.192   6.253   4.930 -0.0515 -1.5424  1.8002
 7707SOL    MW430602   6.277   6.246   4.913 -0.2323 -0.0370 -0.3009
 7708SOL     OW30603   1.444   4.604   3.073  0.2224 -0.2925 -0.1024
 7708SOL    HW230604   1.435   4.536   3.006 -0.5310  1.1799 -1.5493
 7708SOL    HW330605   1.355   4.633   3.090  0.5230  0.2389  0.6035
 7708SOL    MW430606   1.431   4.599   3.066 -0.2121 -0.3739 -0.0639
 7709SOL     OW30607   4.420   6.005   6.338  0.2807  0.0651 -0.2790
 7709SOL    HW230608   4.514   6.020   6.347  0.4955  0.3869 -2.5482
 7709SOL    HW330609   4.383   6.034   6.422  2.1485  0.3076  0.4994
 7709SOL    MW430610   4.427   6.011   6.351 -0.6257  0.2868  0.5196
 7710SOL     OW30611   2.382   4.623   4.784  0.3171  0.8678 -0.4985
 7710SOL    HW230612   2.432   4.606   4.864 -0.5456 -0.8671 -0.2818
 7710SOL    HW330613   2.292   4.635   4.815 -0.4108 -1.8101 -1.2865
 7710SOL    MW430614   2.377   4.622   4.799  0.2296 -0.2508 -0.5068
 7711SOL     OW30615   4.900   3.808   5.097 -0.4174  0.0444  0.2644
 7711SOL    HW230616   4.837   3.846   5.158 -0.0029  1.1728  0.0022
 7711SOL    HW330617   4.848   3.779   5.023 -0.8292 -0.6419  0.8084
 7711SOL    MW430618   4.885   3.809   5.095 -0.2950 -0.3101  0.0687
 7712SOL     OW30619   0.588   2.089   0.295 -0.0596  0.0498  0.6493
 7712SOL    HW230620   0.586   2.184   0.283 -0.7513  0.1377  1.3321
 7712SOL    HW330621   0.641   2.076   0.374 -0.9762 -0.0287  1.2701
 7712SOL    MW430622   0.595   2.100   0.304  0.0240  0.2358  0.0040
 7713SOL     OW30623   1.217   3.708   5.328  0.0709  0.1806  0.1070
 7713SOL    HW230624   1.239   3.618   5.303  0.5029  0.6200 -1.1376
 7713SOL    HW330625   1.282   3.731   5.395  0.7951  0.0196 -0.5335
 7713SOL    MW430626   1.229   3.699   5.334 -0.3319 -0.3235 -0.1528
 7714SOL     OW30627   4.915   6.402   1.102  0.6281 -0.4585 -0.8447
 7714SOL    HW230628   4.834   6.425   1.056 -0.4936  0.0922  1.2689
 7714SOL    HW330629   4.886   6.342   1.172  2.0046 -0.1128  0.0520
 7714SOL    MW430630   4.900   6.397   1.105 -0.3957 -0.3910  0.2896
 7715SOL     OW30631   5.916   3.234   4.418 -0.3375 -0.4975  0.0681
 7715SOL    HW230632   5.873   3.149   4.424  0.7855 -1.1693 -0.9614
 7715SOL    HW330633   6.009   3.214   4.408 -0.0203  0.8557  0.0124
 7715SOL    MW430634   5.923   3.220   4.417  0.3814  0.0190 -0.0912
 7716SOL     OW30635   0.579   1.550   2.870 -0.4192  0.4982  0.4461
 7716SOL    HW230636   0.527   1.492   2.813 -0.5698 -0.2344  1.3140
 7716SOL    HW330637   0.670   1.530   2.848 -0.4748  1.1494 -0.4465
 7716SOL    MW430638   0.584   1.539   2.859  0.2938  0.0711 -0.2988
 7717SOL     OW30639   3.158   3.704   1.329  0.0559  0.1923 -0.2176
 7717SOL    HW230640   3.121   3.774   1.382 -1.8122 -2.3094  2.0640
 7717SOL    HW330641   3.082   3.656   1.296  1.2548 -0.5157 -2.1564
 7717SOL    MW430642   3.143   3.707   1.331 -0.5422  0.7361  0.4136
 7718SOL     OW30643   5.009   0.292   3.648 -0.0539 -0.4937 -0.5372
 7718SOL    HW230644   5.046   0.376   3.676 -1.4013 -0.3567  0.9355
 7718SOL    HW330645   4.973   0.310   3.561  0.5270  0.1834 -0.6512
 7718SOL    MW430646   5.009   0.306   3.640 -0.1134  0.0615 -0.3079
 7719SOL     OW30647   4.805   1.866   4.764 -0.5434 -0.1571 -0.3952
 7719SOL    HW230648   4.767   1.928   4.703 -1.4600  1.7515  1.9508
 7719SOL    HW330649   4.730   1.834   4.815  0.4503  0.4901  1.5581
 7719SOL    MW430650   4.790   1.870   4.763  0.3001 -0.5796  0.5156
 7720SOL     OW30651   3.755   3.035   2.340 -0.4041 -0.1783 -0.3416
 7720SOL    HW230652   3.783   2.949   2.370 -1.3429  0.0789  1.4241
 7720SOL    HW330653   3.832   3.073   2.298  0.5843 -1.1293  0.5716
 7720SOL    MW430654   3.769   3.029   2.339 -0.8260 -0.0388  0.4020
 7721SOL     OW30655   1.379   6.062   6.164  1.0698 -0.7107  0.1380
 7721SOL    HW230656   1.355   5.986   6.217 -1.8346  0.6227  0.9255
 7721SOL    HW330657   1.373   6.031   6.073 -1.0136 -1.2665  0.4078
 7721SOL    MW430658   1.375   6.048   6.159  0.2537  0.1459 -0.2439
 7722SOL     OW30659   3.095   1.060   2.958 -0.5155  0.1225  0.1777
 7722SOL    HW230660   3.118   1.127   2.894 -0.3108  1.8561  1.9666
 7722SOL    HW330661   3.166   0.996   2.952 -0.1963  0.5513 -0.8991
 7722SOL    MW430662   3.108   1.061   2.948 -0.2315  0.5826  0.1844
 7723SOL     OW30663   0.806   4.692   5.037  0.2695 -0.5165  0.2618
 7723SOL    HW230664   0.815   4.606   5.079 -0.3475 -0.2798  0.9026
 7723SOL    HW330665   0.791   4.672   4.945 -2.1401 -1.2175  0.7298
 7723SOL    MW430666   0.806   4.678   5.030 -0.0690 -0.4054 -0.0438
 7724SOL     OW30667   4.942   5.443   0.899 -0.3358 -0.6469  0.1531
 7724SOL    HW230668   4.962   5.520   0.845 -0.7723 -0.3372  0.4294
 7724SOL    HW330669   4.858   5.463   0.940  1.3545  0.4414  3.3596
 7724SOL    MW430670   4.934   5.456   0.897 -0.0352 -0.2188 -0.7250
 7725SOL     OW30671   5.757   6.063   5.481  0.2868 -0.2249 -1.1060
 7725SOL    HW230672   5.845   6.100   5.470 -0.1004  1.1603  0.0760
 7725SOL    HW330673   5.766   6.003   5.555  0.2084  0.0303 -0.8887
 7725SOL    MW430674   5.770   6.060   5.489  0.1181 -0.1413 -0.3146
 7726SOL     OW30675   2.939   5.447   1.563  0.4788 -0.1481  0.0162
 7726SOL    HW230676   2.883   5.379   1.524 -0.9645  1.2509 -0.4226
 7726SOL    HW330677   3.025   5.405   1.568 -0.6231 -2.4890  1.0128
 7726SOL    MW430678   2.943   5.432   1.558 -0.5628  0.0535 -0.4076
 7727SOL     OW30679   1.276   4.333   3.996 -0.8422  0.4818 -0.3241
 7727SOL    HW230680   1.247   4.347   3.906 -0.4839 -0.0441 -0.5259
 7727SOL    HW330681   1.197   4.305   4.042 -1.4020  2.2755 -0.0903
 7727SOL    MW430682   1.261   4.331   3.990  0.4391 -0.1839  0.1298
 7728SOL     OW30683   6.004   4.392   5.696  0.1353  0.3314 -0.8883
 7728SOL    HW230684   5.919   4.404   5.739 -0.8473 -0.1642 -2.6275
 7728SOL    HW330685   6.044   4.319   5.744 -1.4581 -1.0273 -1.4974
 7728SOL    MW430686   5.998   4.384   5.708  0.5607  0.4135  0.3550
 7729SOL     OW30687   3.606   2.864   0.257 -0.2245  0.0686 -0.0074
 7729SOL    HW230688   3.648   2.837   0.175 -1.2568 -0.4341 -0.3947
 7729SOL    HW330689   3.514   2.876   0.233 -0.7709 -1.2509  1.3194
 7729SOL    MW430690   3.599   2.862   0.243 -0.0361  0.5679 -0.0019
 7730SOL     OW30691   0.655   3.683   1.188 -0.2332  0.3383 -0.0028
 7730SOL    HW230692   0.590   3.633   1.138 -0.1727 -0.5000  0.7185
 7730SOL    HW330693   0.738   3.639   1.169  0.2445  1.7402 -1.3574
 7730SOL    MW430694   0.657   3.670   1.179 -0.3702 -0.9380 -0.3565
 7731SOL     OW30695   4.663   4.598   1.734  0.0049  0.3808  0.0237
 7731SOL    HW230696   4.730   4.635   1.791  0.2099 -0.7908  0.5911
 7731SOL    HW330697   4.597   4.667   1.725  1.6176  1.8453 -1.1706
 7731SOL    MW430698   4.663   4.612   1.740 -0.0355  0.2436  0.4214
 7732SOL     OW30699   1.284   1.372   1.786 -0.4150 -0.2219 -0.1057
 7732SOL    HW230700   1.297   1.300   1.847  3.3003  1.5234  1.4890
 7732SOL    HW330701   1.217   1.427   1.828 -2.9553 -2.2935 -1.1306
 7732SOL    MW430702   1.277   1.370   1.800 -0.6205  0.3669 -0.7048
 7733SOL     OW30703   5.464   2.758   0.343  0.2917  0.3311  0.3524
 7733SOL    HW230704   5.385   2.807   0.320  1.0184  0.7160 -1.4967
 7733SOL    HW330705   5.512   2.817   0.402  0.1519  0.9685 -0.1537
 7733SOL    MW430706   5.460   2.772   0.348 -0.5887  0.0371  0.0633
 7734SOL     OW30707   4.943   3.284   1.532 -0.8895  0.4280  0.1244
 7734SOL    HW230708   4.908   3.248   1.450 -2.2345  0.3766  0.6979
 7734SOL    HW330709   5.014   3.224   1.556  1.3024  1.8583 -2.3108
 7734SOL    MW430710   4.948   3.271   1.524 -0.0141  0.2460  0.1479
 7735SOL     OW30711   5.977   1.689   4.558 -0.1001  0.1720 -0.1855
 7735SOL    HW230712   6.066   1.691   4.593 -0.6452  0.9465  1.2450
 7735SOL    HW330713   5.958   1.780   4.535 -0.1904 -0.1421 -1.4099
 7735SOL    MW430714   5.986   1.701   4.559  0.5133 -1.3051  0.1250
 7736SOL     OW30715   2.412   3.177   2.978 -0.3049 -0.2908  0.4288
 7736SOL    HW230716   2.419   3.230   3.058  1.3457  1.2132 -0.6451
 7736SOL    HW330717   2.328   3.202   2.941 -0.1627  0.5547  0.6526
 7736SOL    MW430718   2.402   3.188   2.984 -0.2184 -0.3242 -0.2066
 7737SOL     OW30719   5.518   1.831   5.033 -0.6759 -0.2613 -0.0773
 7737SOL    HW230720   5.565   1.857   4.954  0.8735 -0.2402  0.8119
 7737SOL    HW330721   5.566   1.753   5.064 -0.5989  0.3461  1.3934
 7737SOL    MW430722   5.531   1.824   5.026  0.0826 -0.0709 -0.0726
 7738SOL     OW30723   1.727   0.645   3.049  0.1821  0.4447 -0.5350
 7738SOL    HW230724   1.790   0.683   2.988  1.2260 -0.2615  0.0743
 7738SOL    HW330725   1.735   0.698   3.128 -1.0307  1.2403 -0.9224
 7738SOL    MW430726   1.736   0.657   3.052  0.3761 -0.6823  0.8732
 7739SOL     OW30727   2.756   5.761   0.995 -0.3065  0.2191  0.1353
 7739SOL    HW230728   2.685   5.815   0.958 -0.9033  0.7668  1.9346
 7739SOL    HW330729   2.722   5.672   0.991 -0.8684  0.4099  0.4338
 7739SOL    MW430730   2.742   5.757   0.990  0.7536  0.0245  0.1928
 7740SOL     OW30731   1.109   4.570   4.830  0.5433 -0.1268 -0.3126
 7740SOL    HW230732   1.142   4.649   4.873 -0.1459 -0.4794  0.9021
 7740SOL    HW330733   1.051   4.603   4.761 -0.9249  0.4378  1.1459
 7740SOL    MW430734   1.106   4.585   4.827 -0.4198 -0.0509 -0.5330
 7741SOL     OW30735   1.421   1.095   5.666 -0.4407  0.2521  0.0766
 7741SOL    HW230736   1.430   1.115   5.759 -0.0059 -1.7356  0.5083
 7741SOL    HW330737   1.502   1.127   5.626  1.7376 -3.1848  1.2708
 7741SOL    MW430738   1.433   1.102   5.673 -0.2196 -0.0244  0.5642
 7742SOL     OW30739   0.099   5.975   1.053 -0.8912 -0.1075 -0.0342
 7742SOL    HW230740   0.073   5.887   1.023  1.9443 -1.1895  0.3328
 7742SOL    HW330741   0.132   6.018   0.974 -1.4483  0.2902 -0.0495
 7742SOL    MW430742   0.100   5.969   1.038  0.2465  0.3447 -0.3575
 7743SOL     OW30743   4.052   0.045   4.982 -0.0608 -1.0172 -0.2614
 7743SOL    HW230744   3.990   0.050   4.909  0.1463 -1.4331 -0.4679
 7743SOL    HW330745   4.003   0.080   5.057 -0.1018 -0.0985 -0.7018
 7743SOL    MW430746   4.037   0.050   4.983  0.4216 -0.0622  0.3941
 7744SOL     OW30747   2.185   6.031   3.925 -0.4704 -0.1564  0.9393
 7744SOL    HW230748   2.262   6.082   3.948 -0.4520  0.5496 -0.5582
 7744SOL    HW330749   2.188   5.955   3.983  2.4288 -1.1364 -0.3055
 7744SOL    MW430750   2.195   6.028   3.935  0.4230 -0.1076 -0.5539
 7745SOL     OW30751   3.258   3.205   4.504  0.3513 -0.1913  0.3012
 7745SOL    HW230752   3.339   3.153   4.511 -0.1645 -1.0359  0.1473
 7745SOL    HW330753   3.232   3.197   4.412 -0.7182 -1.1887  0.6723
 7745SOL    MW430754   3.266   3.197   4.493  0.5251 -0.0642  0.6129
 7746SOL     OW30755   1.527   3.493   1.272 -0.1391 -0.8924  0.2007
 7746SOL    HW230756   1.596   3.512   1.335  0.7126  0.1975 -1.0030
 7746SOL    HW330757   1.559   3.418   1.223 -0.5496 -1.3947  0.6953
 7746SOL    MW430758   1.540   3.486   1.274 -0.1164 -0.1077 -0.2357
 7747SOL     OW30759   4.077   1.510   0.025  0.0625  0.1772 -0.1126
 7747SOL    HW230760   4.105   1.553   0.105  0.2923 -2.2854  1.2243
 7747SOL    HW330761   4.108   1.567  -0.045  1.9976  1.2078  1.4834
 7747SOL    MW430762   4.085   1.523   0.026  0.5549 -0.2152  0.3358
 7748SOL     OW30763   0.805   3.376   2.559  0.6683 -0.1027 -0.0434
 7748SOL    HW230764   0.751   3.297   2.553  0.9886 -0.2922 -0.3809
 7748SOL    HW330765   0.815   3.390   2.654 -0.3912  0.2200  0.0434
 7748SOL    MW430766   0.799   3.367   2.571  0.0543 -0.5200  0.0460
 7749SOL     OW30767   0.794   2.301   0.495 -1.1132  0.2782  0.3785
 7749SOL    HW230768   0.831   2.371   0.442 -0.4243  1.8728  2.8035
 7749SOL    HW330769   0.868   2.243   0.515 -1.2181  0.0862  0.2165
 7749SOL    MW430770   0.808   2.302   0.490 -0.1904 -0.6219 -0.1339
 7750SOL     OW30771   5.842   1.594   5.033  0.2396 -0.1576  0.1495
 7750SOL    HW230772   5.789   1.608   4.955  1.8151  0.5904 -0.8199
 7750SOL    HW330773   5.875   1.504   5.025  0.8017  0.0865 -0.3087
 7750SOL    MW430774   5.839   1.584   5.022 -0.1265  0.3469 -0.8129
 7751SOL     OW30775   2.745   1.230   2.473  0.1015  0.1359 -0.9743
 7751SOL    HW230776   2.655   1.209   2.499  0.5010 -2.3801 -1.3943
 7751SOL    HW330777   2.786   1.261   2.554 -0.7964  0.1096 -0.4918
 7751SOL    MW430778   2.739   1.232   2.487 -0.3070 -0.2670 -0.5044
 7752SOL     OW30779   3.216   1.854   4.955 -0.3207 -0.0182  0.1126
 7752SOL    HW230780   3.231   1.868   4.861 -0.5512 -0.8254 -0.0564
 7752SOL    HW330781   3.123   1.871   4.966 -0.7692 -1.9455 -0.2346
 7752SOL    MW430782   3.206   1.858   4.944  0.1331  0.2626  0.2878
 7753SOL     OW30783   3.563   1.524   0.370  0.0941  0.5603  0.4242
 7753SOL    HW230784   3.515   1.606   0.368 -0.0286  0.5002  0.7610
 7753SOL    HW330785   3.610   1.526   0.454 -0.4581 -0.0205  0.7588
 7753SOL    MW430786   3.563   1.535   0.381 -0.1216 -0.1689 -0.0139
 7754SOL     OW30787   4.297   5.048   4.547 -0.2109  0.5055  0.4504
 7754SOL    HW230788   4.204   5.060   4.531  0.2620  2.4628 -1.0602
 7754SOL    HW330789   4.329   5.134   4.573  1.2501 -0.0482  0.5871
 7754SOL    MW430790   4.289   5.061   4.548 -0.3288 -0.2249 -0.5762
 7755SOL     OW30791   1.195   3.501   3.809  0.5590  0.1200 -0.4219
 7755SOL    HW230792   1.146   3.423   3.782 -2.5283  1.5683  0.4829
 7755SOL    HW330793   1.231   3.478   3.894 -2.4694  0.3244  1.0696
 7755SOL    MW430794   1.193   3.487   3.817 -0.0370  0.4302 -0.0940
 7756SOL     OW30795   0.757   4.578   3.749 -0.5835  0.2226 -0.0773
 7756SOL    HW230796   0.711   4.645   3.698  0.1198  1.4753  0.8804
 7756SOL    HW330797   0.824   4.626   3.798 -0.6373 -1.0489  1.3367
 7756SOL    MW430798   0.760   4.593   3.749 -0.2882  0.0850  0.2144
 7757SOL     OW30799   0.376   0.562   3.217 -0.3717  0.2282 -0.5436
 7757SOL    HW230800   0.406   0.474   3.194 -2.1997 -0.0712 -2.0237
 7757SOL    HW330801   0.334   0.552   3.302  0.5714 -0.0342 -0.0922
 7757SOL    MW430802   0.375   0.549   3.225  0.2870  0.3265 -0.0190
 7758SOL     OW30803   2.637   3.263   3.183  0.2069 -0.7456 -0.6686
 7758SOL    HW230804   2.659   3.180   3.140 -2.4096 -1.5868 -0.5817
 7758SOL    HW330805   2.659   3.330   3.119  0.5957 -1.6435 -1.5037
 7758SOL    MW430806   2.643   3.261   3.169  0.2322  0.3477  0.4432
 7759SOL     OW30807   3.519   1.841   3.624  0.2599  0.6042  0.0389
 7759SOL    HW230808   3.522   1.776   3.554  1.3750  0.3391  0.3176
 7759SOL    HW330809   3.560   1.919   3.586  0.0831  0.7352  0.1162
 7759SOL    MW430810   3.525   1.843   3.609  0.0871  0.1834  0.2844
 7760SOL     OW30811   1.971   3.564   0.270 -0.7139 -0.1065  0.4559
 7760SOL    HW230812   1.989   3.493   0.209 -1.3179 -0.3131  0.5127
 7760SOL    HW330813   1.877   3.560   0.285 -1.1004  1.9027 -1.0089
 7760SOL    MW430814   1.961   3.554   0.264  0.8572 -0.1109 -0.2359
 7761SOL     OW30815   2.423   3.814   4.551  0.1275  0.1650 -0.1235
 7761SOL    HW230816   2.505   3.847   4.588  0.5410  0.3167 -1.1460
 7761SOL    HW330817   2.417   3.854   4.465  0.3246 -1.8812 -1.1679
 7761SOL    MW430818   2.433   3.823   4.545  0.2558 -0.5183  0.7904
 7762SOL     OW30819   0.381   5.675   4.929  0.0208 -0.3553 -0.2392
 7762SOL    HW230820   0.453   5.632   4.883  0.1293 -0.6885  0.2406
 7762SOL    HW330821   0.421   5.754   4.967  0.5984 -1.4410  1.5589
 7762SOL    MW430822   0.396   5.680   4.928 -0.2223  0.0752  0.1898
 7763SOL     OW30823   1.446   2.118   0.711  0.1908  0.4433 -0.0873
 7763SOL    HW230824   1.442   2.102   0.617 -1.9726  1.5572 -0.2467
 7763SOL    HW330825   1.380   2.186   0.726  1.7962  1.6293  1.9742
 7763SOL    MW430826   1.437   2.125   0.700 -0.0805  0.0765 -0.4029
 7764SOL     OW30827   1.331   2.435   2.101 -0.0468  0.5518 -0.4398
 7764SOL    HW230828   1.296   2.523   2.112 -0.6053  0.4670 -1.4390
 7764SOL    HW330829   1.393   2.442   2.028  0.4041  0.2419 -0.0977
 7764SOL    MW430830   1.335   2.448   2.093 -0.2455 -0.5894 -0.1031
 7765SOL     OW30831   3.877   0.618   0.057  0.6467  0.2613 -0.0233
 7765SOL    HW230832   3.897   0.550   0.122  0.3840 -1.6666 -1.8356
 7765SOL    HW330833   3.821   0.680   0.103 -1.4914 -2.2662  0.9882
 7765SOL    MW430834   3.873   0.617   0.072 -0.2328 -0.2794 -0.1742
 7766SOL     OW30835   1.669   5.955   0.154 -0.4816 -0.3026  0.9552
 7766SOL    HW230836   1.729   6.029   0.160  0.4438 -0.9781  0.3901
 7766SOL    HW330837   1.721   5.880   0.185 -0.9597 -0.9406  0.2541
 7766SOL    MW430838   1.684   5.955   0.159  0.0696  0.0266 -0.0046
 7767SOL     OW30839   2.071   1.931   2.698  0.1356 -0.0112 -0.6509
 7767SOL    HW230840   1.985   1.930   2.654 -0.0866 -0.7469 -0.2093
 7767SOL    HW330841   2.090   1.839   2.714  0.9406  0.1651 -0.5972
 7767SOL    MW430842   2.062   1.919   2.694 -0.7418 -0.3017  0.2692
 7768SOL     OW30843   2.320   5.248   2.012 -0.1496  0.1703  0.4875
 7768SOL    HW230844   2.400   5.298   2.023 -1.0656  1.5567  1.0356
 7768SOL    HW330845   2.250   5.313   2.013 -1.6040 -1.2301  3.5266
 7768SOL    MW430846   2.321   5.263   2.013 -0.3700  0.1063  0.0920
 7769SOL     OW30847   2.897   2.572   5.803  0.1485 -0.8001  0.1089
 7769SOL    HW230848   2.865   2.605   5.887 -1.0367 -1.3132 -0.1214
 7769SOL    HW330849   2.989   2.597   5.801 -0.1154  0.3442  0.9948
 7769SOL    MW430850   2.905   2.580   5.814 -0.0561  0.3989 -0.6475
 7770SOL     OW30851   0.520   4.534   4.971 -0.1067  0.0360 -0.3413
 7770SOL    HW230852   0.488   4.455   4.927  0.9381 -1.0963  0.8196
 7770SOL    HW330853   0.557   4.588   4.901 -1.1239 -0.3416 -1.1965
 7770SOL    MW430854   0.521   4.531   4.956 -0.3317 -0.5966 -0.1927
 7771SOL     OW30855   4.648   5.555   1.948  0.0034  0.0709 -0.1054
 7771SOL    HW230856   4.640   5.640   1.905  0.7381 -0.7180 -1.8788
 7771SOL    HW330857   4.714   5.568   2.015  0.0891  0.9062 -0.3467
 7771SOL    MW430858   4.655   5.568   1.951  0.4702 -0.3144 -0.0087
 7772SOL     OW30859   3.960   3.399   0.618  0.1367  0.3071 -0.1044
 7772SOL    HW230860   3.933   3.337   0.550 -1.2266  0.2133  0.4853
 7772SOL    HW330861   3.973   3.345   0.696  4.2421  0.0162 -0.8036
 7772SOL    MW430862   3.958   3.384   0.619  0.0696 -0.2809 -0.3132
 7773SOL     OW30863   2.538   4.476   4.357 -0.5117 -0.0545  0.4745
 7773SOL    HW230864   2.468   4.428   4.313 -0.1163 -0.6455  0.4902
 7773SOL    HW330865   2.531   4.450   4.449 -0.0133 -0.4250  0.4072
 7773SOL    MW430866   2.528   4.466   4.364 -0.5654 -0.0404 -0.1773
 7774SOL     OW30867   5.750   4.843   0.784 -0.0392 -0.3163 -0.5665
 7774SOL    HW230868   5.752   4.822   0.877 -0.0928  0.2218 -0.4454
 7774SOL    HW330869   5.700   4.924   0.778 -0.0553 -0.3599 -1.0653
 7774SOL    MW430870   5.744   4.851   0.795  0.0643 -0.0387 -0.5629
 7775SOL     OW30871   4.736   5.876   3.313  0.0122  0.5606 -0.4290
 7775SOL    HW230872   4.731   5.783   3.336 -0.2194  0.1108 -2.1163
 7775SOL    HW330873   4.667   5.918   3.364 -0.5943 -0.3901 -0.4379
 7775SOL    MW430874   4.726   5.869   3.323  0.9676 -0.1471 -0.7332
 7776SOL     OW30875   1.369   1.685   3.641  0.2954 -0.4032  0.0136
 7776SOL    HW230876   1.427   1.702   3.567  0.9358  0.3020  0.6607
 7776SOL    HW330877   1.412   1.614   3.689  0.6690  0.1498  0.5171
 7776SOL    MW430878   1.382   1.678   3.637  0.6776 -0.1483 -0.0186
 7777SOL     OW30879   4.872   3.180   4.282  0.3100  0.0184  0.3478
 7777SOL    HW230880   4.949   3.218   4.325 -0.0777  0.1859  0.9152
 7777SOL    HW330881   4.897   3.090   4.264  0.7261  0.1397  0.2990
 7777SOL    MW430882   4.885   3.173   4.286 -0.2971  0.1885 -0.3860
 7778SOL     OW30883   4.216   4.827   4.759 -0.1817  0.1049  0.6350
 7778SOL    HW230884   4.272   4.891   4.715  1.3777 -1.0661  0.8147
 7778SOL    HW330885   4.178   4.774   4.689  0.7588 -0.5255  0.5834
 7778SOL    MW430886   4.219   4.828   4.744 -0.6244 -0.4388  0.8042
 7779SOL     OW30887   1.776   4.873   0.728 -0.3025 -0.3560  0.0440
 7779SOL    HW230888   1.766   4.968   0.727 -1.5215 -0.4331 -2.2826
 7779SOL    HW330889   1.700   4.841   0.778 -2.4032 -0.1910 -2.7942
 7779SOL    MW430890   1.765   4.881   0.734  0.5160 -0.5078 -0.6426
 7780SOL     OW30891   0.221   2.117   0.813  0.3276  0.3734  0.4647
 7780SOL    HW230892   0.278   2.101   0.737  1.1504  0.7929  0.9816
 7780SOL    HW330893   0.136   2.084   0.786  0.5254  0.8306 -0.7771
 7780SOL    MW430894   0.218   2.110   0.799 -0.0793 -0.0025 -0.2707
 7781SOL     OW30895   1.050   0.470   1.760 -0.1825  0.0819 -0.2817
 7781SOL    HW230896   1.133   0.505   1.793 -0.1210  0.6292 -0.9795
 7781SOL    HW330897   0.999   0.548   1.738 -1.2978 -0.2247  1.0971
 7781SOL    MW430898   1.055   0.485   1.761 -0.3135  0.4548 -0.6945
 7782SOL     OW30899   4.645   2.679   4.316 -0.1542  0.0458 -0.1535
 7782SOL    HW230900   4.709   2.679   4.245 -1.0032  1.3529 -0.9618
 7782SOL    HW330901   4.611   2.769   4.318 -1.0923 -0.3063  1.0387
 7782SOL    MW430902   4.649   2.691   4.307  0.1135 -0.0069  0.1443
 7783SOL     OW30903   3.993   0.899   6.222  0.8195 -0.0858 -0.0777
 7783SOL    HW230904   3.937   0.958   6.273  1.4338  1.1520 -0.7671
 7783SOL    HW330905   3.936   0.826   6.199 -0.3216  0.7930 -0.1482
 7783SOL    MW430906   3.978   0.897   6.226 -0.1919 -0.2596  0.6495
 7784SOL     OW30907   5.278   3.996   1.366 -0.1069 -0.2799  0.1547
 7784SOL    HW230908   5.346   4.006   1.300 -1.3638  2.9621 -0.8809
 7784SOL    HW330909   5.214   3.938   1.326 -0.3149  0.7548 -1.0693
 7784SOL    MW430910   5.278   3.990   1.352 -0.1087 -0.6010  0.3606
 7785SOL     OW30911   0.206   3.115   4.946  0.1116 -0.2610  0.5012
 7785SOL    HW230912   0.135   3.138   4.886  2.1970  2.2962 -1.2200
 7785SOL    HW330913   0.191   3.169   5.024  0.2578  0.4653  0.0382
 7785SOL    MW430914   0.195   3.125   4.948 -0.8531  0.4292 -0.0591
 7786SOL     OW30915   0.168   3.073   0.119 -0.2895 -0.3379  0.1828
 7786SOL    HW230916   0.165   3.007   0.187 -1.4177 -0.8693 -0.3575
 7786SOL    HW330917   0.091   3.127   0.134 -0.9034 -0.8436 -1.0251
 7786SOL    MW430918   0.158   3.071   0.130 -0.1934  0.2615  0.4209
 7787SOL     OW30919   5.400   5.652   5.901  0.3066 -0.3918  0.5138
 7787SOL    HW230920   5.338   5.627   5.969  1.4992 -0.2434  1.6948
 7787SOL    HW330921   5.426   5.742   5.923  2.1936 -1.0186  1.0436
 7787SOL    MW430922   5.396   5.661   5.913  0.8524  0.3831 -0.0680
 7788SOL     OW30923   0.790   0.251   0.586 -0.4013  0.1574  0.4512
 7788SOL    HW230924   0.739   0.323   0.548 -0.7970  0.0776  0.8149
 7788SOL    HW330925   0.724   0.185   0.608 -0.1323  0.0267  0.8729
 7788SOL    MW430926   0.774   0.252   0.584  0.5281 -0.5559  0.5153
 7789SOL     OW30927   6.308   3.890   1.716  0.3563 -0.4288 -0.1648
 7789SOL    HW230928   6.388   3.928   1.679  1.0880 -1.3551  0.4103
 7789SOL    HW330929   6.305   3.802   1.680 -1.0453 -0.0387 -1.0774
 7789SOL    MW430930   6.319   3.884   1.706  0.1528 -0.0303 -0.3586
 7790SOL     OW30931   4.656   1.689   1.302 -0.5650 -0.5211 -0.2264
 7790SOL    HW230932   4.723   1.752   1.329  0.1059 -1.5069  0.5090
 7790SOL    HW330933   4.652   1.697   1.207 -0.3189  0.4569 -0.1600
 7790SOL    MW430934   4.664   1.698   1.293 -0.2432 -0.2658  0.4616
 7791SOL     OW30935   4.944   3.619   1.459 -0.2737  0.1459 -0.3720
 7791SOL    HW230936   4.863   3.609   1.509 -0.1953  0.7976 -0.1068
 7791SOL    HW330937   5.013   3.594   1.520 -0.1481  1.3284 -0.0140
 7791SOL    MW430938   4.942   3.614   1.474  0.2360  0.5019 -0.8951
 7792SOL     OW30939   5.145   0.251   6.298 -0.5421  0.2956 -0.3458
 7792SOL    HW230940   5.103   0.282   6.377 -0.1851  1.8715 -0.7515
 7792SOL    HW330941   5.227   0.211   6.328 -0.5066  0.6971  0.0937
 7792SOL    MW430942   5.151   0.250   6.312  0.0559  0.1696 -0.0470
 7793SOL     OW30943   3.731   2.414   4.919 -0.2393 -0.4983  0.7384
 7793SOL    HW230944   3.758   2.469   4.846  1.4113 -1.2665  0.7253
 7793SOL    HW330945   3.635   2.417   4.917 -0.2586 -0.5758 -1.5251
 7793SOL    MW430946   3.722   2.421   4.909  0.0161  0.8292 -0.0294
 7794SOL     OW30947   5.868   5.014   1.614  0.1112 -0.1380 -0.0300
 7794SOL    HW230948   5.795   5.036   1.556  1.0902  0.4321 -1.0750
 7794SOL    HW330949   5.829   5.015   1.702 -1.3265 -0.6992 -0.6231
 7794SOL    MW430950   5.853   5.017   1.618  0.6079  0.2986  0.1337
 7795SOL     OW30951   3.271   4.042   4.069 -0.3884 -0.6347  0.6971
 7795SOL    HW230952   3.296   3.992   4.146  0.4662 -2.7180 -0.8495
 7795SOL    HW330953   3.244   3.976   4.005 -1.0442  1.0203 -0.8155
 7795SOL    MW430954   3.271   4.027   4.071 -0.0120 -0.9231 -0.2889
 7796SOL     OW30955   1.899   1.454   1.723  0.5230  0.6498  0.0946
 7796SOL    HW230956   1.861   1.450   1.635  1.7714  1.3121 -0.4970
 7796SOL    HW330957   1.867   1.375   1.766 -1.3894  1.0850 -0.4157
 7796SOL    MW430958   1.890   1.443   1.717 -0.0605  0.5233 -0.1369
 7797SOL     OW30959   5.190   6.213   2.827  0.3349 -0.0926 -0.2449
 7797SOL    HW230960   5.124   6.231   2.761  0.7450 -0.3900 -0.7500
 7797SOL    HW330961   5.249   6.150   2.785  1.1939  0.5183  0.0206
 7797SOL    MW430962   5.189   6.207   2.812  0.0418  0.0833 -0.1363
 7798SOL     OW30963   0.866   3.379   1.353 -0.0443  0.1399 -0.5387
 7798SOL    HW230964   0.789   3.322   1.359  0.2711 -0.1704  1.0945
 7798SOL    HW330965   0.839   3.461   1.395  0.6881 -0.1914  0.6232
 7798SOL    MW430966   0.852   3.383   1.359 -0.0787 -0.3771 -0.0242
 7799SOL     OW30967   3.800   4.559   2.648  0.1403  0.1288 -0.0373
 7799SOL    HW230968   3.850   4.612   2.586 -1.0256 -0.2158 -1.3168
 7799SOL    HW330969   3.712   4.553   2.610  0.2917 -2.9869 -0.1540
 7799SOL    MW430970   3.795   4.565   2.635 -0.0227  0.4176 -0.1829
 7800SOL     OW30971   4.882   3.910   0.939  0.0599 -0.4723 -0.7954
 7800SOL    HW230972   4.896   4.003   0.956 -0.0580 -0.5220 -0.4236
 7800SOL    HW330973   4.872   3.904   0.844 -0.4227 -0.0448 -0.7716
 7800SOL    MW430974   4.883   3.921   0.928  0.0145 -0.3036 -0.1626
 7801SOL     OW30975   3.678   1.443   2.260  0.1658 -0.1947  0.2142
 7801SOL    HW230976   3.600   1.491   2.235 -1.1094 -1.4480  1.5994
 7801SOL    HW330977   3.649   1.384   2.329  1.9381 -2.0263 -0.4997
 7801SOL    MW430978   3.664   1.442   2.266 -0.5878 -0.2386 -0.1769
 7802SOL     OW30979   5.432   2.633   2.900  0.4770 -0.1531  0.3113
 7802SOL    HW230980   5.396   2.615   2.987  0.2551 -1.0668  0.0441
 7802SOL    HW330981   5.422   2.727   2.889 -1.9387 -0.3630  0.2260
 7802SOL    MW430982   5.426   2.643   2.910 -0.3925 -0.0620  0.6648
 7803SOL     OW30983   6.205   2.375   4.692 -0.3096  0.2191 -0.1401
 7803SOL    HW230984   6.211   2.293   4.643 -1.6039  0.5695 -0.9388
 7803SOL    HW330985   6.253   2.358   4.773 -1.7127 -1.8393  0.3650
 7803SOL    MW430986   6.212   2.362   4.697 -0.3223 -0.2510 -0.0236
 7804SOL     OW30987   0.187   4.529   1.213 -0.8892  0.2195  0.1668
 7804SOL    HW230988   0.099   4.544   1.248 -1.2627 -1.2227 -0.1063
 7804SOL    HW330989   0.195   4.434   1.207  1.5778  0.1595  2.4881
 7804SOL    MW430990   0.176   4.518   1.217  0.1150  0.2454 -0.3547
 7805SOL     OW30991   0.107   5.185   4.166 -0.1825  0.6518 -0.0385
 7805SOL    HW230992   0.151   5.188   4.081  1.7549 -0.4287  0.8500
 7805SOL    HW330993   0.072   5.096   4.171 -2.5313  1.4780 -0.7023
 7805SOL    MW430994   0.108   5.174   4.156  0.1108  0.0753 -0.6744
 7806SOL     OW30995   0.428   1.251   1.332  0.0875  0.1026 -0.1953
 7806SOL    HW230996   0.377   1.212   1.403  0.5994 -1.1862 -0.5119
 7806SOL    HW330997   0.466   1.330   1.371  2.2387 -1.7609  1.7238
 7806SOL    MW430998   0.426   1.256   1.346 -0.4154 -0.3678  0.2595
 7807SOL     OW30999   5.055   0.311   2.089  0.2443 -0.0361 -0.2236
 7807SOL    HW231000   5.028   0.300   1.998  0.8308  2.0429 -0.7012
 7807SOL    HW331001   4.986   0.366   2.127  0.8614  0.5232  0.1014
 7807SOL    MW431002   5.042   0.317   2.082 -0.3497  0.1996  0.0209
 7808SOL     OW31003   6.396   0.366   5.805  0.0023 -0.2270  0.1862
 7808SOL    HW231004   6.447   0.444   5.827 -0.3552 -0.2472  1.1303
 7808SOL    HW331005   6.322   0.400   5.754 -0.1185  0.0595  0.5420
 7808SOL    MW431006   6.393   0.381   5.801  0.2148  0.0955  0.2102
 7809SOL     OW31007   0.177   4.401   1.851  0.3484 -0.1504 -0.1534
 7809SOL    HW231008   0.265   4.413   1.888 -0.0167 -1.7966  1.3822
 7809SOL    HW331009   0.190   4.402   1.757  1.6415  2.1126 -0.0378
 7809SOL    MW431010   0.190   4.403   1.844 -0.2018 -0.0576 -0.0339
 7810SOL     OW31011   0.899   4.794   4.213  0.4025 -0.8497 -0.3424
 7810SOL    HW231012   0.946   4.713   4.231 -1.3267 -1.5208  1.3895
 7810SOL    HW331013   0.965   4.863   4.225  1.5985 -1.9066 -0.6984
 7810SOL    MW431014   0.914   4.793   4.217  0.2304  0.0855 -0.1282
 7811SOL     OW31015   1.691   2.025   3.338 -0.6454 -0.0926  0.1169
 7811SOL    HW231016   1.615   2.075   3.310 -0.0545  1.0631  0.5239
 7811SOL    HW331017   1.766   2.075   3.305 -0.0531 -1.7286 -1.1419
 7811SOL    MW431018   1.691   2.038   3.330 -0.4843 -0.1120  0.0399
 7812SOL     OW31019   2.491   3.407   3.792 -0.4827 -0.5920  0.0375
 7812SOL    HW231020   2.533   3.492   3.806  0.2083 -1.0042  0.5763
 7812SOL    HW331021   2.555   3.357   3.740 -1.2073 -0.5324 -0.9320
 7812SOL    MW431022   2.505   3.411   3.787  0.0612  0.0789  0.3292
 7813SOL     OW31023   0.952   3.617   3.846 -0.0117 -0.3940 -0.1547
 7813SOL    HW231024   1.045   3.592   3.847  0.4534  1.2459 -0.2423
 7813SOL    HW331025   0.949   3.701   3.892 -1.4339 -0.3208 -0.3362
 7813SOL    MW431026   0.964   3.625   3.852 -0.1802 -0.4811 -0.6693
 7814SOL     OW31027   2.239   1.535   5.368  0.6358  0.7774  0.3382
 7814SOL    HW231028   2.193   1.565   5.446 -1.8623  0.2748 -0.8387
 7814SOL    HW331029   2.250   1.441   5.380 -0.5423  0.5484 -0.2515
 7814SOL    MW431030   2.235   1.527   5.380  0.1688  0.4763  0.2404
 7815SOL     OW31031   5.537   5.366   3.454  0.3686  0.1359  0.0057
 7815SOL    HW231032   5.466   5.426   3.431  1.2335  0.6797 -1.3794
 7815SOL    HW331033   5.529   5.294   3.390 -0.0945 -0.7885  1.0686
 7815SOL    MW431034   5.526   5.364   3.442 -0.3928 -0.5776 -0.4791
 7816SOL     OW31035   1.199   1.224   5.554 -0.4506 -0.2795 -0.0717
 7816SOL    HW231036   1.281   1.175   5.549 -0.1555  0.0435  1.3134
 7816SOL    HW331037   1.218   1.297   5.612 -1.2383  0.8158 -1.1326
 7816SOL    MW431038   1.212   1.227   5.561 -0.4114  0.1689 -0.3001
 7817SOL     OW31039   6.178   4.554   6.063 -0.1816  0.5921  0.1816
 7817SOL    HW231040   6.143   4.637   6.032  0.5233  0.3623 -1.2994
 7817SOL    HW331041   6.101   4.505   6.093 -1.1965  0.1474 -2.8556
 7817SOL    MW431042   6.164   4.558   6.063  0.3318  0.0462  0.1567
 7818SOL     OW31043   4.536   4.909   2.092 -0.4222 -0.7854  0.0485
 7818SOL    HW231044   4.608   4.958   2.053  0.2414 -2.1298 -0.4992
 7818SOL    HW331045   4.546   4.820   2.058 -3.0688 -0.7726 -1.0437
 7818SOL    MW431046   4.547   4.903   2.083 -0.5506  0.5690  0.0754
 7819SOL     OW31047   3.378   5.047   0.465  0.5907 -0.1322  0.1929
 7819SOL    HW231048   3.301   5.004   0.501  0.1237  0.5487  0.0281
 7819SOL    HW331049   3.351   5.138   0.454  0.9750 -0.1638 -1.1598
 7819SOL    MW431050   3.364   5.053   0.469 -0.1971  0.0909 -0.5021
 7820SOL     OW31051   1.686   3.385   5.567 -0.3025 -0.7716  0.2765
 7820SOL    HW231052   1.658   3.475   5.579 -0.4393 -0.9386  1.3861
 7820SOL    HW331053   1.781   3.388   5.576 -0.3496 -0.7997  0.8324
 7820SOL    MW431054   1.695   3.397   5.570  0.0453  0.0895 -0.0812
 7821SOL     OW31055   5.902   3.937   3.885 -0.1204  0.4270  0.4680
 7821SOL    HW231056   5.820   3.975   3.916  0.8576  2.2468  0.9600
 7821SOL    HW331057   5.875   3.875   3.818 -1.8403  2.7493 -1.1737
 7821SOL    MW431058   5.888   3.934   3.880 -0.1998 -0.4104 -0.4484
 7822SOL     OW31059   2.592   0.344   1.935  0.2441  0.3629 -0.1879
 7822SOL    HW231060   2.676   0.390   1.929  1.3634 -1.4786  0.5059
 7822SOL    HW331061   2.562   0.361   2.024  2.1316 -2.4853  1.1405
 7822SOL    MW431062   2.599   0.352   1.946 -0.4504  0.1161  0.1336
 7823SOL     OW31063   2.985   4.156   1.272 -0.6201  0.3490 -0.1215
 7823SOL    HW231064   2.926   4.083   1.289  0.0492 -0.2880 -0.4612
 7823SOL    HW331065   3.030   4.133   1.190 -1.3486  1.7682 -0.9776
 7823SOL    MW431066   2.983   4.144   1.263  0.0897  0.1265  0.2775
 7824SOL     OW31067   5.282   1.669   2.266  0.4237  0.1575 -0.4897
 7824SOL    HW231068   5.337   1.742   2.296 -0.5864  1.0834 -0.8012
 7824SOL    HW331069   5.326   1.637   2.187  0.7774  0.5700 -0.4637
 7824SOL    MW431070   5.295   1.675   2.260  0.0044  0.2930 -0.0820
 7825SOL     OW31071   3.006   5.799   0.918 -0.7469 -0.2947 -0.2768
 7825SOL    HW231072   3.048   5.726   0.963  1.4924  1.3223  0.4762
 7825SOL    HW331073   2.913   5.788   0.935 -0.1594 -0.7491  3.3605
 7825SOL    MW431074   3.000   5.788   0.926  0.3178  0.1971  0.0464
 7826SOL     OW31075   0.544   0.316   3.388 -0.0603  0.4238 -0.3034
 7826SOL    HW231076   0.627   0.351   3.421 -0.6597  1.7573 -0.1335
 7826SOL    HW331077   0.516   0.254   3.455  0.0965  1.0570  0.3665
 7826SOL    MW431078   0.551   0.313   3.401  0.3917 -0.1607 -0.4539
 7827SOL     OW31079   5.416   2.228   2.305 -0.8586 -0.5698  0.0185
 7827SOL    HW231080   5.389   2.162   2.240 -0.8676 -1.2477  0.6956
 7827SOL    HW331081   5.363   2.305   2.284  0.1791 -0.2722 -1.6853
 7827SOL    MW431082   5.405   2.229   2.294  0.6922 -0.7738 -0.6150
 7828SOL     OW31083   0.274   4.146   2.462  0.1909 -0.2975  0.1800
 7828SOL    HW231084   0.206   4.181   2.519  0.7617  1.1900 -0.0042
 7828SOL    HW331085   0.299   4.062   2.502 -1.3010 -0.5794  0.5730
 7828SOL    MW431086   0.268   4.139   2.475 -0.5112 -0.0727  0.3709
 7829SOL     OW31087   1.316   3.862   2.628 -0.2596 -0.0005 -0.3472
 7829SOL    HW231088   1.225   3.832   2.626 -0.0813 -0.5501 -1.4549
 7829SOL    HW331089   1.366   3.785   2.600  0.3612  0.8499 -1.6473
 7829SOL    MW431090   1.310   3.848   2.624 -0.2625 -0.4505  0.8758
 7830SOL     OW31091   2.422   4.203   6.332  0.3467 -0.2143 -0.0666
 7830SOL    HW231092   2.398   4.142   6.402 -2.4239  2.4794  1.5487
 7830SOL    HW331093   2.510   4.233   6.356  0.0895 -0.5352  1.3627
 7830SOL    MW431094   2.431   4.199   6.344  0.0546  0.2612 -0.3030
 7831SOL     OW31095   5.336   5.129   1.771 -0.3708 -0.2958  0.2758
 7831SOL    HW231096   5.383   5.201   1.813 -0.2015 -0.1257 -0.1954
 7831SOL    HW331097   5.346   5.055   1.831  0.3496 -0.2126  0.2687
 7831SOL    MW431098   5.343   5.129   1.784  0.4186 -0.5550  0.8782
 7832SOL     OW31099   3.118   2.744   0.018  0.2471  0.7808 -0.4334
 7832SOL    HW231100   3.062   2.790  -0.045 -0.3953 -0.1361 -0.5613
 7832SOL    HW331101   3.097   2.651   0.004  2.4656  0.3265 -1.1049
 7832SOL    MW431102   3.108   2.738   0.008 -0.0766 -0.1976 -0.0389
 7833SOL     OW31103   0.545   2.245   0.962 -0.2679  0.0777 -0.5292
 7833SOL    HW231104   0.482   2.177   0.985  0.9998 -0.5606  1.2943
 7833SOL    HW331105   0.574   2.222   0.874 -0.9363 -0.8847 -0.5172
 7833SOL    MW431106   0.540   2.233   0.953  0.6564  0.2559 -0.6153
 7834SOL     OW31107   1.529   0.584   0.407 -0.3370  0.5117  0.4385
 7834SOL    HW231108   1.503   0.665   0.364 -1.2042 -0.7778 -1.5737
 7834SOL    HW331109   1.622   0.575   0.385 -0.5423  0.3484 -0.4074
 7834SOL    MW431110   1.538   0.594   0.398  0.3125  0.2770  0.6847
 7835SOL     OW31111   0.917   2.551   3.252 -0.3407 -0.0154  0.1449
 7835SOL    HW231112   0.895   2.484   3.187  0.6716 -0.6322  0.4168
 7835SOL    HW331113   0.832   2.583   3.283 -0.8287 -0.0630 -1.1073
 7835SOL    MW431114   0.903   2.546   3.248 -0.1430 -0.0550 -0.2635
 7836SOL     OW31115   0.569   4.200   2.788 -0.0900  0.3983  0.0010
 7836SOL    HW231116   0.631   4.128   2.788 -1.4339 -0.8439 -1.8790
 7836SOL    HW331117   0.548   4.215   2.696 -0.2919  2.8343  0.3632
 7836SOL    MW431118   0.574   4.193   2.776 -0.5209 -0.1112 -0.1606
 7837SOL     OW31119   2.620   5.956   4.036 -0.4974 -0.1383 -0.9477
 7837SOL    HW231120   2.674   6.005   4.098  0.2020  0.1164 -1.7345
 7837SOL    HW331121   2.538   6.006   4.031  0.3921  1.2892 -2.1189
 7837SOL    MW431122   2.616   5.969   4.044 -0.4497 -0.2143 -0.3201
 7838SOL     OW31123   0.794   0.450   3.103  0.0683  0.2772 -0.1329
 7838SOL    HW231124   0.831   0.538   3.117  0.5033 -0.1078  1.2818
 7838SOL    HW331125   0.717   0.447   3.160  0.0193 -0.2347 -0.2253
 7838SOL    MW431126   0.789   0.461   3.112 -0.1112 -0.1047 -0.0144
 7839SOL     OW31127   3.993   1.232   2.127 -0.2380 -0.0167  0.1353
 7839SOL    HW231128   3.956   1.230   2.039  0.1583 -3.8789 -0.0989
 7839SOL    HW331129   4.088   1.229   2.114  0.2015  4.2064  0.8156
 7839SOL    MW431130   4.001   1.231   2.114  0.4371  0.1175  0.7662
 7840SOL     OW31131   6.281   6.134   2.821 -0.6942 -0.1895  0.3410
 7840SOL    HW231132   6.285   6.165   2.730 -0.5419 -1.7972 -0.2257
 7840SOL    HW331133   6.232   6.203   2.867 -1.1863  0.4378 -1.0513
 7840SOL    MW431134   6.275   6.147   2.815 -0.7822  0.7907  0.5437
 7841SOL     OW31135   1.631   4.607   1.498  0.1674  1.3561 -0.0160
 7841SOL    HW231136   1.644   4.542   1.567  1.6108  0.0165 -1.4319
 7841SOL    HW331137   1.553   4.656   1.525  1.3677  1.7537  3.1313
 7841SOL    MW431138   1.622   4.605   1.510 -0.2882  0.1860  0.2657
 7842SOL     OW31139   1.413   4.656   2.582 -0.0518 -0.6666 -0.0437
 7842SOL    HW231140   1.436   4.674   2.491  0.2604 -1.1388 -0.0642
 7842SOL    HW331141   1.385   4.564   2.582 -2.6628  0.0517 -0.1345
 7842SOL    MW431142   1.413   4.646   2.570  0.4955 -0.1595  0.1653
 7843SOL     OW31143   2.203   4.068   2.799 -0.0279 -0.5317 -0.1868
 7843SOL    HW231144   2.265   4.138   2.821 -0.5143  0.0718 -0.6826
 7843SOL    HW331145   2.224   4.046   2.708 -1.9211  1.2000 -1.1133
 7843SOL    MW431146   2.214   4.074   2.790  0.1743 -0.1271 -0.2593
 7844SOL     OW31147   3.009   0.329   0.340  0.0984  0.0949 -0.0369
 7844SOL    HW231148   2.975   0.252   0.387 -1.4769  1.0056  0.4101
 7844SOL    HW331149   2.983   0.315   0.249  0.2643 -0.1489 -0.0458
 7844SOL    MW431150   3.001   0.317   0.334 -0.1577 -0.1807 -0.0749
 7845SOL     OW31151   3.246   3.098   5.276  0.1832 -0.1829 -0.3517
 7845SOL    HW231152   3.206   3.031   5.331  0.6133 -1.7531 -1.8513
 7845SOL    HW331153   3.339   3.094   5.297  0.0012  1.3007  0.8967
 7845SOL    MW431154   3.253   3.089   5.286  0.0092  0.1625  0.0119
 7846SOL     OW31155   0.400   3.023   2.432 -0.3713 -0.5600  0.8520
 7846SOL    HW231156   0.470   3.069   2.479  0.3837  1.0325 -1.6268
 7846SOL    HW331157   0.445   2.974   2.363 -1.5416 -1.3129  0.5962
 7846SOL    MW431158   0.415   3.023   2.429 -0.7808  0.0376 -0.1224
 7847SOL     OW31159   1.853   5.787   0.542 -0.4925 -0.3605 -0.8822
 7847SOL    HW231160   1.848   5.718   0.608  0.4009 -0.1294 -0.5533
 7847SOL    HW331161   1.874   5.742   0.461 -0.6261 -0.5479 -0.8126
 7847SOL    MW431162   1.855   5.772   0.540  0.3226  0.3363  0.0433
 7848SOL     OW31163   4.885   1.952   2.612  0.2144 -0.1869  0.0397
 7848SOL    HW231164   4.808   2.008   2.615 -0.1213 -0.5109 -1.7943
 7848SOL    HW331165   4.855   1.870   2.573  1.7145  0.0921 -1.8382
 7848SOL    MW431166   4.871   1.948   2.608  0.4284 -0.3547  1.0986
 7849SOL     OW31167   3.188   6.112   3.824 -0.1954 -0.1733 -0.0016
 7849SOL    HW231168   3.105   6.097   3.870 -0.8176  1.3618 -0.5433
 7849SOL    HW331169   3.235   6.030   3.832 -1.2486 -0.6843  1.4031
 7849SOL    MW431170   3.183   6.099   3.831  0.0768 -0.6737 -0.0535
 7850SOL     OW31171   2.537   4.618   6.094  0.2318  0.9826 -0.6573
 7850SOL    HW231172   2.469   4.551   6.090  1.6928 -0.7172  1.0512
 7850SOL    HW331173   2.541   4.653   6.005 -2.0799  0.3808 -1.0797
 7850SOL    MW431174   2.528   4.614   6.082 -0.2898 -0.1742  0.0176
 7851SOL     OW31175   2.320   6.255   2.295  0.1847  0.2780 -0.3290
 7851SOL    HW231176   2.232   6.236   2.328 -0.1990  1.9642 -0.3252
 7851SOL    HW331177   2.313   6.241   2.200 -0.1318  0.5297 -0.3461
 7851SOL    MW431178   2.307   6.250   2.287 -0.0915  0.4049 -0.0634
 7852SOL     OW31179   5.472   2.984   1.343  0.1165 -0.4565 -0.6388
 7852SOL    HW231180   5.400   3.040   1.371 -0.2538 -1.2506  0.0512
 7852SOL    HW331181   5.457   2.970   1.250 -0.7396 -0.7728 -0.4634
 7852SOL    MW431182   5.461   2.990   1.335 -0.4457  0.1930 -0.5934
 7853SOL     OW31183   0.484   0.686   3.531  0.3372 -0.1436 -0.3973
 7853SOL    HW231184   0.512   0.744   3.602  0.6553 -1.9865  1.0592
 7853SOL    HW331185   0.556   0.688   3.468  1.1382 -0.3158  0.4931
 7853SOL    MW431186   0.497   0.694   3.532 -0.3417 -0.3075  0.4510
 7854SOL     OW31187   4.953   4.462   0.958  0.3622  0.0025 -0.5052
 7854SOL    HW231188   4.892   4.516   1.008 -0.3287 -0.0442 -1.2581
 7854SOL    HW331189   4.922   4.372   0.972  0.3931 -0.0407 -0.7013
 7854SOL    MW431190   4.941   4.457   0.966 -0.3883  0.0292  0.3881
 7855SOL     OW31191   6.362   4.944   4.907 -0.2511 -0.4728  0.2119
 7855SOL    HW231192   6.277   4.920   4.944 -0.7898 -1.1844 -1.3836
 7855SOL    HW331193   6.349   5.033   4.875  0.2113  0.1387  1.6404
 7855SOL    MW431194   6.349   4.953   4.908  0.2120  0.1293  0.5329
 7856SOL     OW31195   6.343   4.743   5.256  0.7399  0.0306 -0.5461
 7856SOL    HW231196   6.359   4.806   5.326 -0.2968 -0.0906 -0.1827
 7856SOL    HW331197   6.423   4.745   5.203  0.9716  1.1933 -0.1867
 7856SOL    MW431198   6.356   4.752   5.258 -0.1587 -0.2672  0.2364
 7857SOL     OW31199   0.399   4.358   1.010  0.4765  0.2242 -0.3077
 7857SOL    HW231200   0.464   4.296   1.044  0.1072  0.4915  0.9446
 7857SOL    HW331201   0.315   4.325   1.042  0.0117  0.0734 -1.6263
 7857SOL    MW431202   0.397   4.346   1.019  0.0347 -0.5089 -0.3303
 7858SOL     OW31203   6.199   1.503   1.649  0.3958 -0.0499  0.4278
 7858SOL    HW231204   6.132   1.460   1.702 -0.1252  0.0427 -0.1395
 7858SOL    HW331205   6.185   1.468   1.560  0.3280  0.8601  0.0684
 7858SOL    MW431206   6.189   1.493   1.644 -0.7984 -0.2856  0.2652
 7859SOL     OW31207   5.154   1.788   5.233  0.1487  0.0303  0.8541
 7859SOL    HW231208   5.145   1.720   5.167 -2.0080 -0.6067  1.6834
 7859SOL    HW331209   5.164   1.740   5.316  0.5349  0.7469  1.2301
 7859SOL    MW431210   5.154   1.772   5.235  0.4623 -0.0255 -0.1109
 7860SOL     OW31211   2.288   0.336   6.147  0.1710  0.4549  0.0119
 7860SOL    HW231212   2.306   0.243   6.128 -0.3576  0.4170 -0.3157
 7860SOL    HW331213   2.239   0.367   6.071 -0.0285  0.8929  0.3166
 7860SOL    MW431214   2.284   0.328   6.134 -0.2573  0.3023  0.2119
 7861SOL     OW31215   2.923   4.716   1.488  0.4483  0.1970  0.3288
 7861SOL    HW231216   2.834   4.741   1.514  0.4089  0.4975 -0.0823
 7861SOL    HW331217   2.936   4.630   1.527 -0.4305 -0.3406 -0.5255
 7861SOL    MW431218   2.913   4.708   1.497  0.1541  0.0025 -0.0288
 7862SOL     OW31219   1.066   0.366   4.057  0.4741  0.0874 -0.0701
 7862SOL    HW231220   1.072   0.392   4.149  0.8157  2.4973 -0.6951
 7862SOL    HW331221   1.118   0.431   4.010 -0.1394 -0.7501 -2.0357
 7862SOL    MW431222   1.074   0.378   4.063 -0.3250  0.2198  0.0548
 7863SOL     OW31223   4.266   0.366   5.022  0.0441  0.3997  0.5223
 7863SOL    HW231224   4.268   0.306   4.947 -0.3465  0.3545  0.5473
 7863SOL    HW331225   4.224   0.445   4.988  0.3495  0.5782  0.5531
 7863SOL    MW431226   4.261   0.368   5.007  0.1703 -0.2237 -0.1838
 7864SOL     OW31227   6.413   5.272   1.157 -0.6639  0.2697 -0.2565
 7864SOL    HW231228   6.481   5.310   1.213 -0.1806 -0.0092 -0.6484
 7864SOL    HW331229   6.447   5.283   1.068  0.1968 -2.3911 -0.3346
 7864SOL    MW431230   6.427   5.279   1.153 -0.0561  0.0037  0.2572
 7865SOL     OW31231   6.081   3.841   4.321 -0.0341 -0.0932 -0.1988
 7865SOL    HW231232   6.150   3.829   4.387  0.1129 -1.3049 -0.5342
 7865SOL    HW331233   6.062   3.752   4.290  0.6459  0.4849 -2.5358
 7865SOL    MW431234   6.088   3.827   4.325  0.6114 -0.1413  0.4710
 7866SOL     OW31235   4.812   0.274   4.279  0.2166 -0.4197 -0.2766
 7866SOL    HW231236   4.747   0.268   4.209 -0.2697  0.1715  0.1039
 7866SOL    HW331237   4.880   0.212   4.255  0.1889 -0.0393 -1.4040
 7866SOL    MW431238   4.812   0.265   4.267 -0.0244  0.0930 -0.5841
 7867SOL     OW31239   2.718   4.360   3.493 -0.2180 -0.3468  0.5236
 7867SOL    HW231240   2.707   4.360   3.588 -0.1941 -1.2388  0.5296
 7867SOL    HW331241   2.636   4.325   3.459 -0.1753 -0.1531  0.2171
 7867SOL    MW431242   2.706   4.355   3.501  0.5613  0.1881 -0.0592
 7868SOL     OW31243   5.165   0.658   0.086  0.5886  0.1123 -0.4278
 7868SOL    HW231244   5.088   0.604   0.100 -0.9017  1.9029 -1.2360
 7868SOL    HW331245   5.158   0.687  -0.005  1.8044  0.9116 -0.3012
 7868SOL    MW431246   5.154   0.655   0.076  0.0655 -0.0231 -0.0238
 7869SOL     OW31247   3.527   5.232   4.086  0.0004  0.6288 -0.0764
 7869SOL    HW231248   3.561   5.224   3.996  1.9141  1.1724  0.5544
 7869SOL    HW331249   3.479   5.315   4.086 -1.2711 -0.0698 -0.9488
 7869SOL    MW431250   3.525   5.242   4.074  0.0361  0.5076 -0.0190
 7870SOL     OW31251   0.256   4.930   2.441 -0.6461 -0.0853  0.4434
 7870SOL    HW231252   0.255   5.001   2.376 -2.2665  0.7570  1.3339
 7870SOL    HW331253   0.165   4.923   2.470 -0.8998 -3.6365 -0.7388
 7870SOL    MW431254   0.244   4.939   2.436  0.1823  0.7326  0.2305
 7871SOL     OW31255   4.841   2.257   1.740  0.6787  0.2024 -0.3579
 7871SOL    HW231256   4.886   2.174   1.727  0.6121  0.0298  0.4223
 7871SOL    HW331257   4.905   2.324   1.714  1.8251  0.0090  1.6859
 7871SOL    MW431258   4.856   2.255   1.735 -0.3144 -0.1952  0.4269
 7872SOL     OW31259   4.398   1.889   4.629 -0.0927  0.1701  0.1012
 7872SOL    HW231260   4.361   1.899   4.542  0.8779 -0.6820 -0.4359
 7872SOL    HW331261   4.386   1.796   4.649 -0.4466  0.3915  0.9432
 7872SOL    MW431262   4.392   1.878   4.620 -0.6329 -0.2132  0.1837
 7873SOL     OW31263   6.266   5.700   2.094 -0.1503 -0.1608  0.2029
 7873SOL    HW231264   6.334   5.764   2.114  0.3925 -0.4389 -0.6741
 7873SOL    HW331265   6.184   5.749   2.100 -0.0332 -0.1380  2.6752
 7873SOL    MW431266   6.264   5.715   2.097 -0.0450  0.2632  0.5899
 7874SOL     OW31267   5.199   2.516   5.135 -0.5064  0.5074  0.1630
 7874SOL    HW231268   5.192   2.603   5.172 -0.4731  1.2754 -1.5596
 7874SOL    HW331269   5.109   2.486   5.124 -0.5138  0.1746  1.0377
 7874SOL    MW431270   5.186   2.523   5.139 -0.4253 -0.7471 -0.0939
 7875SOL     OW31271   5.951   2.284   3.365 -0.1324 -0.2377 -0.1571
 7875SOL    HW231272   5.985   2.336   3.292 -2.6809 -0.7293 -1.8261
 7875SOL    HW331273   6.000   2.201   3.360  1.4146  0.6139  0.2644
 7875SOL    MW431274   5.962   2.280   3.354 -0.2818  0.3355 -0.1843
 7876SOL     OW31275   6.423   5.790   5.696 -0.1696  0.1931 -0.7148
 7876SOL    HW231276   6.359   5.720   5.681  1.5320 -1.2488 -1.7466
 7876SOL    HW331277   6.440   5.826   5.609  1.9384 -0.9307 -0.8445
 7876SOL    MW431278   6.417   5.785   5.682 -0.7108 -0.1289  0.8040
 7877SOL     OW31279   5.648   4.603   1.450 -0.1218  0.0825 -0.4759
 7877SOL    HW231280   5.618   4.662   1.519  0.8470  0.8293 -0.6641
 7877SOL    HW331281   5.743   4.618   1.445  0.1512 -1.5367 -0.5088
 7877SOL    MW431282   5.657   4.613   1.458 -0.2166 -0.0564  0.2081
 7878SOL     OW31283   5.723   1.994   1.508 -0.0242  0.5886 -0.2703
 7878SOL    HW231284   5.776   1.919   1.480  1.8111  1.2297  1.2685
 7878SOL    HW331285   5.658   1.957   1.566 -0.6680 -0.0903 -1.3876
 7878SOL    MW431286   5.722   1.979   1.512 -0.1285  0.0140  0.3439
 7879SOL     OW31287   1.301   0.118   2.246  0.3993 -0.4208  0.1254
 7879SOL    HW231288   1.211   0.150   2.255  0.2971 -0.9719  1.1340
 7879SOL    HW331289   1.297   0.027   2.272  1.0542 -0.7629 -0.9103
 7879SOL    MW431290   1.289   0.111   2.251  0.4201  0.2308  0.6136
 7880SOL     OW31291   4.503   0.469   3.182 -0.3918 -0.1198  0.1311
 7880SOL    HW231292   4.491   0.512   3.098  0.8907  1.1721  0.5778
 7880SOL    HW331293   4.512   0.376   3.160  1.0344  0.3129 -1.2846
 7880SOL    MW431294   4.502   0.462   3.168 -0.3758 -0.0267 -0.1755
 7881SOL     OW31295   3.437   5.717   5.171  0.1166 -0.2211 -0.1433
 7881SOL    HW231296   3.462   5.802   5.206  0.1895 -0.2036 -0.2368
 7881SOL    HW331297   3.462   5.655   5.239 -0.3438 -0.1291  0.1152
 7881SOL    MW431298   3.444   5.720   5.185 -0.0234  0.2360 -0.3274
 7882SOL     OW31299   3.010   1.638   5.348  0.2989  0.3984 -0.1898
 7882SOL    HW231300   2.971   1.719   5.314  0.4990  0.2758 -0.7083
 7882SOL    HW331301   2.955   1.615   5.423 -2.0279 -0.9473 -2.1585
 7882SOL    MW431302   2.997   1.646   5.353 -0.0717  0.3356 -0.0692
 7883SOL     OW31303   4.578   1.808   4.912  0.4632  0.1572 -0.2002
 7883SOL    HW231304   4.498   1.771   4.876  0.3091 -1.5498  1.7115
 7883SOL    HW331305   4.547   1.868   4.980  0.7088 -2.0994  2.0385
 7883SOL    MW431306   4.563   1.811   4.916  0.2447  0.5387 -0.4433
 7884SOL     OW31307   0.876   4.074   5.952  0.7271  0.0788  0.4446
 7884SOL    HW231308   0.812   4.022   5.902  2.2462 -0.6445 -0.8417
 7884SOL    HW331309   0.823   4.140   5.997 -0.9794 -0.8531 -0.0916
 7884SOL    MW431310   0.861   4.076   5.951  0.1514  0.7895 -0.0336
 7885SOL     OW31311   6.092   4.937   6.262  0.2342 -0.0998  0.4682
 7885SOL    HW231312   6.050   4.991   6.328  0.4338  1.5974 -0.7235
 7885SOL    HW331313   6.147   4.997   6.213  0.5268 -1.4035 -0.8852
 7885SOL    MW431314   6.093   4.952   6.264  0.2074 -0.4425 -0.0947
 7886SOL     OW31315   6.194   6.097   3.564  0.2613 -0.2568 -0.6207
 7886SOL    HW231316   6.253   6.151   3.617  2.7001 -0.7346 -2.6409
 7886SOL    HW331317   6.252   6.043   3.511 -2.0141 -0.8392 -2.7342
 7886SOL    MW431318   6.209   6.097   3.564 -0.1826  0.3214  0.3643
 7887SOL     OW31319   3.512   5.543   0.494 -0.1957 -0.0567 -0.1645
 7887SOL    HW231320   3.550   5.624   0.527 -0.1501  0.8658 -2.3108
 7887SOL    HW331321   3.583   5.479   0.498  0.4693  0.6379 -0.6090
 7887SOL    MW431322   3.526   5.546   0.499  0.3139  0.2818  0.0343
 7888SOL     OW31323   1.621   5.937   0.553 -0.4854  0.2228  0.0722
 7888SOL    HW231324   1.550   5.876   0.573  0.6435 -0.7296  1.4373
 7888SOL    HW331325   1.693   5.881   0.526  0.3238  0.9987  0.5642
 7888SOL    MW431326   1.621   5.922   0.552 -0.2515  0.3569 -0.1013
 7889SOL     OW31327   2.676   3.690   0.611  0.0421  0.4219  0.0782
 7889SOL    HW231328   2.683   3.783   0.590 -1.9554  1.1218  2.0513
 7889SOL    HW331329   2.765   3.657   0.605  0.7677  2.3934 -0.9300
 7889SOL    MW431330   2.689   3.698   0.608 -0.5564 -0.1502  0.1104
 7890SOL     OW31331   2.161   6.036   4.684 -0.1214  0.4175 -0.7891
 7890SOL    HW231332   2.083   5.983   4.666  0.1902 -0.1051 -0.6313
 7890SOL    HW331333   2.128   6.112   4.732 -0.5513  0.2679 -0.8435
 7890SOL    MW431334   2.146   6.039   4.688 -0.4532 -0.3371 -0.2072
 7891SOL     OW31335   0.538   4.650   1.495  0.2468  0.2423  0.1084
 7891SOL    HW231336   0.471   4.687   1.438 -0.0146 -0.2172  0.1135
 7891SOL    HW331337   0.518   4.557   1.498  2.3020 -0.3756 -1.8852
 7891SOL    MW431338   0.527   4.643   1.488  0.1155  0.4970  0.1964
 7892SOL     OW31339   5.767   2.575   6.053 -0.1743 -0.0543  0.3890
 7892SOL    HW231340   5.857   2.563   6.025 -0.3179 -2.8249  0.8213
 7892SOL    HW331341   5.756   2.514   6.126 -2.3943  0.1608  0.3146
 7892SOL    MW431342   5.777   2.566   6.059 -0.1426  0.1523  0.7273
 7893SOL     OW31343   5.010   0.005   3.696  0.7028  0.2455  0.2142
 7893SOL    HW231344   5.022   0.094   3.663 -0.2597 -0.4041 -2.1481
 7893SOL    HW331345   4.935  -0.028   3.646 -1.8966 -0.4682  4.1372
 7893SOL    MW431346   5.001   0.013   3.685  0.3806 -0.6195  0.8631
 7894SOL     OW31347   2.259   4.456   3.821  0.9577 -0.0099 -0.1680
 7894SOL    HW231348   2.191   4.485   3.760 -0.0944  0.9436  1.3763
 7894SOL    HW331349   2.326   4.525   3.817 -0.8428  2.0861  2.3837
 7894SOL    MW431350   2.259   4.469   3.813 -0.4553  0.0790 -0.2620
 7895SOL     OW31351   4.796   5.324   3.656 -0.4597 -0.2309  0.3129
 7895SOL    HW231352   4.798   5.228   3.664 -1.0004 -0.1242  1.9819
 7895SOL    HW331353   4.852   5.342   3.580  2.9427 -1.6622  2.2436
 7895SOL    MW431354   4.804   5.314   3.647  0.3061  0.3775  0.2898
 7896SOL     OW31355   1.093   2.720   1.609  0.3845  0.2900  0.3861
 7896SOL    HW231356   1.039   2.755   1.680  1.1647 -1.3008  1.8452
 7896SOL    HW331357   1.159   2.787   1.594 -0.2946  1.0147  0.5507
 7896SOL    MW431358   1.095   2.734   1.616 -0.3848 -0.0913  0.3940
 7897SOL     OW31359   1.068   1.078   6.302 -0.3883  0.4161 -0.0046
 7897SOL    HW231360   1.060   1.173   6.292  1.9786  0.5851 -1.0196
 7897SOL    HW331361   1.054   1.044   6.213  1.4222  0.1142 -0.2206
 7897SOL    MW431362   1.065   1.086   6.289 -0.4685 -0.3465  0.3133
 7898SOL     OW31363   3.883   2.792   2.349  0.5113 -0.5412 -0.5577
 7898SOL    HW231364   3.844   2.730   2.411 -2.6001  1.0096 -0.7713
 7898SOL    HW331365   3.911   2.738   2.275  1.9089 -2.1102  1.0120
 7898SOL    MW431366   3.882   2.776   2.348 -0.0506 -0.0857  0.6878
 7899SOL     OW31367   0.699   3.151   0.819 -0.0721  0.3400 -0.4463
 7899SOL    HW231368   0.779   3.103   0.840 -0.4942  0.1181  0.7173
 7899SOL    HW331369   0.715   3.188   0.732  1.3923  0.4974 -0.1275
 7899SOL    MW431370   0.712   3.150   0.810  0.3186  1.1305 -0.2122
 7900SOL     OW31371   0.867   6.129   0.422 -0.5758  0.2344 -0.0200
 7900SOL    HW231372   0.882   6.045   0.378 -1.5487 -0.2271  0.4752
 7900SOL    HW331373   0.954   6.163   0.441 -0.1622 -0.2575 -0.9920
 7900SOL    MW431374   0.880   6.122   0.419 -0.0963 -0.6757 -0.1174
 7901SOL     OW31375   6.404   6.347   1.096 -0.0726  0.0578 -0.2507
 7901SOL    HW231376   6.408   6.387   1.010  1.0925 -0.0646 -0.2781
 7901SOL    HW331377   6.491   6.307   1.108  0.3778  1.4318  1.6047
 7901SOL    MW431378   6.416   6.347   1.086 -0.0535 -0.2663 -0.5107
 7902SOL     OW31379   5.964   5.512   4.646 -0.5966 -0.2292  0.0145
 7902SOL    HW231380   6.024   5.526   4.719 -0.3872 -0.5958 -0.0830
 7902SOL    HW331381   5.878   5.502   4.687 -0.6752  0.7667  0.1220
 7902SOL    MW431382   5.961   5.512   4.661  0.3940 -0.3249 -0.6194
 7903SOL     OW31383   6.257   4.568   3.999  0.3676 -0.2478  0.4731
 7903SOL    HW231384   6.243   4.476   3.975  0.9685 -0.5610  1.2612
 7903SOL    HW331385   6.170   4.602   4.016  0.2310 -1.0950  1.6132
 7903SOL    MW431386   6.244   4.560   3.998 -0.4821 -0.0669 -0.6349
 7904SOL     OW31387   2.954   2.114   4.320  0.5100  0.3778  0.2378
 7904SOL    HW231388   2.904   2.190   4.292  0.4427  0.6555  1.0668
 7904SOL    HW331389   2.889   2.044   4.330  0.3258  0.6455  0.9849
 7904SOL    MW431390   2.939   2.115   4.318 -0.3448  0.6712 -0.5578
 7905SOL     OW31391   4.617   2.777   0.123 -0.5524 -0.2623  0.3285
 7905SOL    HW231392   4.662   2.745   0.202  0.5792 -1.0548 -0.5957
 7905SOL    HW331393   4.622   2.704   0.061 -0.0858  0.8239 -0.9869
 7905SOL    MW431394   4.624   2.763   0.125 -0.0511  0.1005 -0.3400
 7906SOL     OW31395   3.982   5.475   2.516 -0.1027  0.0265  0.4428
 7906SOL    HW231396   3.933   5.555   2.535  1.4183  1.2341 -0.4191
 7906SOL    HW331397   4.049   5.503   2.454  2.0884 -1.3413  2.0316
 7906SOL    MW431398   3.985   5.489   2.511  0.1066  0.2558  0.2517
 7907SOL     OW31399   3.285   2.819   2.901  0.1972  0.1718  0.3481
 7907SOL    HW231400   3.231   2.897   2.887 -0.1656  0.2535  2.0373
 7907SOL    HW331401   3.374   2.853   2.912  0.2348  0.2287 -0.0879
 7907SOL    MW431402   3.290   2.834   2.901 -0.0258  0.1888  0.3409
 7908SOL     OW31403   4.333   0.924   1.777  0.2660 -0.7483  0.2167
 7908SOL    HW231404   4.253   0.959   1.818  1.3397 -1.6168  3.4007
 7908SOL    HW331405   4.309   0.834   1.752  0.0741 -0.8420  0.7077
 7908SOL    MW431406   4.319   0.916   1.779 -0.0182 -0.1822 -0.7012
 7909SOL     OW31407   2.992   4.325   0.038 -0.1296 -0.4945  0.6605
 7909SOL    HW231408   3.030   4.412   0.049 -0.7356 -0.1705  0.2215
 7909SOL    HW331409   2.988   4.312  -0.056 -1.6598 -0.2645  0.6609
 7909SOL    MW431410   2.996   4.334   0.027  0.2615 -0.3032 -0.2164
 7910SOL     OW31411   2.077   3.865   0.374  0.1715  0.1159 -0.0839
 7910SOL    HW231412   2.156   3.865   0.320 -0.2903 -0.6463 -0.7860
 7910SOL    HW331413   2.033   3.948   0.353  0.8289  0.5924  0.3917
 7910SOL    MW431414   2.082   3.876   0.364 -0.1877  0.0354  0.9949
 7911SOL     OW31415   4.968   0.153   2.778  0.3727 -0.4692 -0.0012
 7911SOL    HW231416   4.988   0.243   2.806 -0.0273 -1.2338  3.1875
 7911SOL    HW331417   4.873   0.153   2.767  0.4053 -0.4224 -0.2723
 7911SOL    MW431418   4.958   0.165   2.780  0.3227 -0.3586  0.0701
 7912SOL     OW31419   3.239   3.880   0.495  0.7485 -0.0629 -0.0479
 7912SOL    HW231420   3.298   3.860   0.568  1.0548 -0.2843 -0.3542
 7912SOL    HW331421   3.286   3.851   0.417 -0.1253 -1.0527 -0.2329
 7912SOL    MW431422   3.253   3.874   0.494  0.9149  0.3041 -0.0638
 7913SOL     OW31423   5.037   5.465   5.294 -0.0251 -0.7961 -0.1607
 7913SOL    HW231424   4.983   5.387   5.312 -1.5058 -0.4196 -2.5607
 7913SOL    HW331425   4.979   5.524   5.246  1.5093  1.2100  0.3176
 7913SOL    MW431426   5.022   5.462   5.290  0.4671  0.1207 -0.0065
 7914SOL     OW31427   4.837   6.162   1.289  0.5076 -0.2527 -0.0394
 7914SOL    HW231428   4.928   6.131   1.288  0.1178 -1.4637 -0.3482
 7914SOL    HW331429   4.816   6.171   1.382  1.1135  0.5845  0.0232
 7914SOL    MW431430   4.846   6.159   1.301 -0.5101  0.3444  0.6015
 7915SOL     OW31431   3.256   5.286   4.540  0.4842 -0.1705  0.4606
 7915SOL    HW231432   3.279   5.198   4.570 -0.8895 -1.3844 -1.7962
 7915SOL    HW331433   3.161   5.292   4.555  0.2211  0.1449 -1.1907
 7915SOL    MW431434   3.246   5.276   4.546  0.5161  0.2359  0.2707
 7916SOL     OW31435   5.903   6.055   4.987  0.3478  0.1579  0.2359
 7916SOL    HW231436   5.908   6.064   4.892  1.4167 -0.1922  0.2497
 7916SOL    HW331437   5.950   5.974   5.006 -1.2458 -0.6567  0.9307
 7916SOL    MW431438   5.910   6.045   4.977 -0.3881  0.0666 -0.6116
 7917SOL     OW31439   1.060   1.207   3.893 -0.7677  0.1654 -0.6897
 7917SOL    HW231440   0.977   1.228   3.935  0.1091  0.6060  0.8886
 7917SOL    HW331441   1.106   1.292   3.886  0.8688 -0.4400  1.4782
 7917SOL    MW431442   1.055   1.221   3.897 -0.5118 -0.2145 -0.5931
 7918SOL     OW31443   4.047   0.081   0.506  0.1182  0.3361  0.3266
 7918SOL    HW231444   3.983   0.083   0.434 -0.5888  0.1773  0.9290
 7918SOL    HW331445   4.077  -0.010   0.508  1.0515  0.6147 -0.5332
 7918SOL    MW431446   4.042   0.069   0.497  0.3537  0.1898 -0.2517
 7919SOL     OW31447   5.663   4.734   5.588 -0.3114  0.5877 -0.2644
 7919SOL    HW231448   5.583   4.740   5.536 -0.5211  0.2810  0.0151
 7919SOL    HW331449   5.703   4.820   5.580 -1.2954  1.1530  0.5786
 7919SOL    MW431450   5.657   4.746   5.580  0.8337  0.1539  0.0863
 7920SOL     OW31451   0.560   5.928   0.368 -0.2342 -0.5787 -0.6997
 7920SOL    HW231452   0.533   5.851   0.418 -1.5200 -0.7330 -1.5609
 7920SOL    HW331453   0.542   5.904   0.277 -1.2961  0.9489 -0.9384
 7920SOL    MW431454   0.554   5.915   0.363 -0.0130  0.1568  0.1044
 7921SOL     OW31455   2.286   4.014   1.268  0.0826 -0.5168 -0.8240
 7921SOL    HW231456   2.277   4.076   1.196  1.4218 -1.3141 -1.7101
 7921SOL    HW331457   2.380   4.000   1.277 -0.1727 -2.4790 -0.7040
 7921SOL    MW431458   2.297   4.021   1.260  0.0643 -0.1800 -0.0025
 7922SOL     OW31459   3.811   2.739   4.275  0.0451 -0.1031 -0.1329
 7922SOL    HW231460   3.879   2.800   4.304 -1.8201  1.3462  1.4475
 7922SOL    HW331461   3.742   2.746   4.341  0.1062 -4.8087  0.8207
 7922SOL    MW431462   3.811   2.748   4.288  0.3627  0.0111 -0.4274
 7923SOL     OW31463   3.960   4.159   1.938 -0.7197  0.1464  0.0166
 7923SOL    HW231464   4.017   4.085   1.916  1.0988  1.4114  0.2733
 7923SOL    HW331465   3.956   4.211   1.858 -2.6151 -0.5453 -0.4049
 7923SOL    MW431466   3.967   4.156   1.924  0.4286  0.0350  0.2534
 7924SOL     OW31467   1.295   5.985   0.943 -0.5255 -0.9625 -0.2983
 7924SOL    HW231468   1.221   5.971   0.883  0.3920 -1.2682 -1.3858
 7924SOL    HW331469   1.359   5.918   0.919  0.8289  0.3636 -0.5278
 7924SOL    MW431470   1.293   5.974   0.932 -0.1620  0.7605  0.3663
 7925SOL     OW31471   2.393   3.532   4.411 -0.2908 -0.0117  0.3119
 7925SOL    HW231472   2.457   3.462   4.394  1.2503  0.9923  1.6291
 7925SOL    HW331473   2.447   3.608   4.433 -1.9728  0.8674  1.5657
 7925SOL    MW431474   2.409   3.533   4.411  0.3989  0.2267 -0.1248
 7926SOL     OW31475   1.398   0.964   3.745  0.9792  0.0529  0.2886
 7926SOL    HW231476   1.473   1.017   3.716  1.3108 -0.9198 -0.6836
 7926SOL    HW331477   1.430   0.874   3.744 -0.5786 -0.5598 -1.5601
 7926SOL    MW431478   1.412   0.959   3.741 -0.4871 -0.0956  0.0940
 7927SOL     OW31479   2.476   3.115   5.855 -0.0923 -0.0415  0.0707
 7927SOL    HW231480   2.566   3.125   5.826  0.1168  0.7491  0.9391
 7927SOL    HW331481   2.423   3.135   5.778  0.4578  0.2254 -0.2418
 7927SOL    MW431482   2.481   3.119   5.841 -0.4012  0.1329 -0.4176
 7928SOL     OW31483   4.934   1.775   5.912  0.5911  0.1054 -0.1287
 7928SOL    HW231484   5.011   1.810   5.868 -0.2716  1.8596 -0.3487
 7928SOL    HW331485   4.907   1.700   5.859  0.3632  1.3574 -1.8743
 7928SOL    MW431486   4.941   1.770   5.899 -0.2065 -1.0432 -0.1196
 7929SOL     OW31487   1.384   3.086   4.413  0.2443  0.1173  0.2725
 7929SOL    HW231488   1.348   3.151   4.472 -0.2447 -0.2169  0.3457
 7929SOL    HW331489   1.331   3.007   4.427 -0.6912  0.3725 -1.4731
 7929SOL    MW431490   1.372   3.084   4.422 -0.3997 -1.1210  0.5958
 7930SOL     OW31491   6.062   1.241   5.279  0.4979  0.0909  0.1567
 7930SOL    HW231492   6.032   1.246   5.188  1.5840 -0.5044 -0.2444
 7930SOL    HW331493   6.032   1.323   5.318 -1.6158 -0.4534 -0.2151
 7930SOL    MW431494   6.054   1.253   5.272  0.2079  0.5373 -0.4990
 7931SOL     OW31495   0.921   0.622   2.542 -0.0683 -0.2962  0.0036
 7931SOL    HW231496   0.883   0.574   2.468  0.7905 -0.0163 -0.6328
 7931SOL    HW331497   0.877   0.586   2.619 -0.5472 -1.0138 -0.5920
 7931SOL    MW431498   0.910   0.611   2.542  0.3216 -0.4609 -0.4825
 7932SOL     OW31499   4.278   1.488   1.527  0.4715  0.1663 -0.5554
 7932SOL    HW231500   4.225   1.412   1.548 -0.5865  0.3251 -2.4042
 7932SOL    HW331501   4.369   1.456   1.530  0.1506 -0.7309  0.2280
 7932SOL    MW431502   4.283   1.474   1.530 -0.1451 -0.5072 -0.0445
 7933SOL     OW31503   0.764   4.416   0.994 -0.1398 -0.2343  0.3302
 7933SOL    HW231504   0.848   4.376   1.015 -1.1909 -2.4523  0.6182
 7933SOL    HW331505   0.744   4.472   1.068  0.3899 -0.9041  0.9939
 7933SOL    MW431506   0.773   4.418   1.006 -0.6179 -0.1028  0.0898
 7934SOL     OW31507   1.437   3.755   2.846  0.6603  0.0192 -0.5968
 7934SOL    HW231508   1.392   3.807   2.780  1.8254  3.1050  0.8607
 7934SOL    HW331509   1.378   3.754   2.921  1.1921  0.4668 -0.1546
 7934SOL    MW431510   1.423   3.762   2.847  0.0597  0.4686 -0.0578
 7935SOL     OW31511   0.061   0.527   1.146 -0.2494 -0.2034 -0.1142
 7935SOL    HW231512   0.110   0.475   1.082 -0.0764 -0.4413  0.2088
 7935SOL    HW331513   0.106   0.611   1.148 -0.3990 -0.1131 -0.4788
 7935SOL    MW431514   0.073   0.531   1.138  0.5279 -0.0390 -0.0420
 7936SOL     OW31515   5.145   0.855   0.254 -0.2936 -0.3278  0.2124
 7936SOL    HW231516   5.087   0.820   0.322  1.0378 -1.5909  0.7565
 7936SOL    HW331517   5.163   0.779   0.198  0.6380  0.0939 -0.0680
 7936SOL    MW431518   5.140   0.840   0.256 -0.7491  0.0614  0.1562
 7937SOL     OW31519   5.131   0.403   2.843 -0.4468 -0.5274 -0.2812
 7937SOL    HW231520   5.185   0.414   2.922 -0.4486 -0.8568 -0.2325
 7937SOL    HW331521   5.095   0.490   2.827  0.3424 -0.2343 -0.4945
 7937SOL    MW431522   5.134   0.416   2.851 -0.2001 -0.1692  0.1876
 7938SOL     OW31523   1.190   5.605   5.685 -0.4691  0.0463  0.0060
 7938SOL    HW231524   1.188   5.652   5.602 -0.4279  1.2881  0.6882
 7938SOL    HW331525   1.245   5.528   5.668 -3.3302 -1.7660 -2.1323
 7938SOL    MW431526   1.197   5.601   5.672  0.1217  0.0184 -0.2055
 7939SOL     OW31527   3.438   3.966   3.622  0.2008  0.5236  0.4333
 7939SOL    HW231528   3.415   4.009   3.704 -1.3083  1.1768 -0.2902
 7939SOL    HW331529   3.355   3.928   3.591  0.8687 -0.2168 -0.4931
 7939SOL    MW431530   3.424   3.966   3.629  0.5468  0.1614 -0.1998
 7940SOL     OW31531   1.987   1.148   2.351 -0.7446  0.1852  0.1881
 7940SOL    HW231532   1.915   1.162   2.412 -0.8656 -0.1923  0.1328
 7940SOL    HW331533   2.005   1.235   2.314 -0.2482  0.5376  1.2194
 7940SOL    MW431534   1.980   1.162   2.354 -0.4706 -0.8281  0.2869
 7941SOL     OW31535   2.481   3.865   6.113 -0.7952 -0.0415  0.2500
 7941SOL    HW231536   2.516   3.820   6.036 -0.1004  1.2526 -0.2162
 7941SOL    HW331537   2.461   3.953   6.082  1.0916  1.0666  1.9119
 7941SOL    MW431538   2.483   3.871   6.098 -0.0595 -0.1505  0.3803
 7942SOL     OW31539   3.004   0.562   2.148  0.4179 -0.2283 -0.2629
 7942SOL    HW231540   3.087   0.569   2.195  1.3803 -0.5290 -1.8654
 7942SOL    HW331541   2.986   0.650   2.116  0.3839 -0.2786 -0.3814
 7942SOL    MW431542   3.012   0.575   2.150 -0.1764  0.1256  0.4777
 7943SOL     OW31543   5.572   0.285   3.814 -0.4302  0.2172  0.7049
 7943SOL    HW231544   5.496   0.344   3.811 -0.3658  0.2916  0.5478
 7943SOL    HW331545   5.534   0.197   3.816 -0.5439  0.2774  1.5942
 7943SOL    MW431546   5.557   0.281   3.814 -0.0702  0.2556  0.3569
 7944SOL     OW31547   3.511   3.540   5.455  0.2235 -0.0527 -0.1247
 7944SOL    HW231548   3.514   3.492   5.373  1.2229  0.4323 -0.3864
 7944SOL    HW331549   3.528   3.631   5.431 -2.6248  0.6573  0.2412
 7944SOL    MW431550   3.514   3.545   5.441 -0.1514 -0.0674  0.0910
 7945SOL     OW31551   4.157   2.819   1.368  0.2001 -0.0287 -0.0890
 7945SOL    HW231552   4.199   2.803   1.284 -2.3543 -0.9474 -1.2826
 7945SOL    HW331553   4.220   2.789   1.433  2.3517  0.9558 -1.6116
 7945SOL    MW431554   4.170   2.813   1.366 -0.1651  0.1157  0.5493
 7946SOL     OW31555   5.662   1.470   3.543  0.2969 -0.0054 -0.4864
 7946SOL    HW231556   5.707   1.554   3.539 -1.2108  0.8983  0.6169
 7946SOL    HW331557   5.702   1.424   3.617  0.7404 -0.0360 -0.7428
 7946SOL    MW431558   5.673   1.475   3.552  0.1146 -0.0938  0.1350
 7947SOL     OW31559   5.862   2.607   4.386  0.2600  0.0978  0.5142
 7947SOL    HW231560   5.881   2.611   4.293 -1.0195  1.5106  0.2799
 7947SOL    HW331561   5.915   2.677   4.424 -0.7085  0.8274  0.5484
 7947SOL    MW431562   5.872   2.617   4.379  0.2785  0.5117 -0.8780
 7948SOL     OW31563   4.789   0.246   5.706  0.2858  0.0942 -0.1545
 7948SOL    HW231564   4.780   0.153   5.729  1.6393 -0.1700 -0.6383
 7948SOL    HW331565   4.820   0.246   5.616  0.7491  1.0160 -0.0052
 7948SOL    MW431566   4.792   0.234   5.697 -0.2967 -0.1183  0.4963
 7949SOL     OW31567   2.891   6.393   5.299  0.3731  1.0021 -0.1392
 7949SOL    HW231568   2.886   6.466   5.360 -1.8134  0.6704  0.1904
 7949SOL    HW331569   2.886   6.433   5.212  2.8996  1.4319 -0.1648
 7949SOL    MW431570   2.889   6.408   5.295 -0.1819  0.4228 -0.7935
 7950SOL     OW31571   4.315   2.072   0.681  0.6212  0.1396 -0.1520
 7950SOL    HW231572   4.325   2.154   0.632 -2.3815  0.6955 -0.0150
 7950SOL    HW331573   4.309   2.099   0.772  0.7587 -0.3618  0.0083
 7950SOL    MW431574   4.315   2.086   0.686 -0.4971  0.4623 -0.4981
 7951SOL     OW31575   4.152   0.816   4.039 -0.7750  0.6672 -0.5307
 7951SOL    HW231576   4.210   0.806   3.963  0.8936  0.7094  0.6794
 7951SOL    HW331577   4.088   0.744   4.030 -0.1436  0.2060 -1.5626
 7951SOL    MW431578   4.151   0.805   4.028 -0.3244 -0.4725  0.2266
 7952SOL     OW31579   3.486   5.197   0.168  0.4707 -0.3145 -0.8297
 7952SOL    HW231580   3.563   5.168   0.217 -0.0683 -0.1245  0.1789
 7952SOL    HW331581   3.521   5.252   0.098  1.2457  0.0090 -0.2135
 7952SOL    MW431582   3.501   5.201   0.165 -0.2262 -0.5625  0.3632
 7953SOL     OW31583   0.648   1.866   0.770  0.5211 -0.2870  0.7587
 7953SOL    HW231584   0.635   1.960   0.770 -0.9595 -0.4633  0.2650
 7953SOL    HW331585   0.573   1.831   0.819  0.5616 -1.2498  0.1716
 7953SOL    MW431586   0.636   1.874   0.777  0.1797 -0.6127 -0.1514
 7954SOL     OW31587   0.417   4.824   3.215  0.1347 -0.2438  0.0052
 7954SOL    HW231588   0.369   4.744   3.235  2.2005 -1.5989 -0.1715
 7954SOL    HW331589   0.421   4.871   3.298  0.3798 -1.1797  0.5391
 7954SOL    MW431590   0.411   4.820   3.229  0.0754 -0.1629 -1.0272
 7955SOL     OW31591   5.324   0.639   2.563  0.6873 -0.2522 -0.2534
 7955SOL    HW231592   5.236   0.646   2.599  0.9119 -0.6758  0.3872
 7955SOL    HW331593   5.382   0.670   2.633  1.0831 -0.4160 -0.5012
 7955SOL    MW431594   5.320   0.644   2.577 -0.2840  0.2247 -0.0972
 7956SOL     OW31595   0.805   1.493   5.558 -0.0796  0.2665  0.1875
 7956SOL    HW231596   0.836   1.508   5.647  1.7400 -0.3838 -0.2954
 7956SOL    HW331597   0.843   1.564   5.506  0.7930 -0.6432 -0.4556
 7956SOL    MW431598   0.814   1.504   5.563  0.5181  0.0675  0.4124
 7957SOL     OW31599   2.824   0.155   2.488 -0.2784 -0.8518  0.4315
 7957SOL    HW231600   2.893   0.174   2.425 -0.2576 -0.8161  0.4648
 7957SOL    HW331601   2.796   0.242   2.518 -0.4786 -0.8565  0.2643
 7957SOL    MW431602   2.829   0.169   2.484  0.2732  0.0153  0.2891
 7958SOL     OW31603   2.679   0.821   0.014 -0.0520  0.1872 -0.3082
 7958SOL    HW231604   2.761   0.816  -0.035  1.5948  4.4838  1.5092
 7958SOL    HW331605   2.699   0.782   0.099 -0.4887 -0.3578 -0.4503
 7958SOL    MW431606   2.693   0.815   0.018 -0.3392 -0.4751  0.3816
 7959SOL     OW31607   1.078   4.273   1.313 -0.0805  0.3595  0.3977
 7959SOL    HW231608   1.086   4.181   1.338 -0.3099  0.0803 -0.5216
 7959SOL    HW331609   1.160   4.313   1.342 -0.0087 -0.1121  0.8663
 7959SOL    MW431610   1.090   4.266   1.321  0.3122  0.2706  0.1886
 7960SOL     OW31611   3.200   5.761   3.643  0.0637 -0.1413  0.2277
 7960SOL    HW231612   3.255   5.770   3.722  0.0025 -0.0259  0.2576
 7960SOL    HW331613   3.188   5.667   3.634 -0.8850 -0.1177  1.0247
 7960SOL    MW431614   3.206   5.750   3.652  0.0319  0.1872 -0.4483
 7961SOL     OW31615   2.571   0.354   0.472 -0.7019 -0.2870 -0.0943
 7961SOL    HW231616   2.537   0.443   0.460 -1.3764 -0.3879  0.9269
 7961SOL    HW331617   2.652   0.366   0.521 -0.6511 -0.2168 -0.1944
 7961SOL    MW431618   2.577   0.368   0.477 -0.0422  0.4128 -0.1498
 7962SOL     OW31619   2.182   2.103   0.507  0.3644 -0.2879  0.2710
 7962SOL    HW231620   2.221   2.190   0.498  0.1191 -0.1965  0.0570
 7962SOL    HW331621   2.191   2.064   0.420  2.3432 -1.2922  0.8677
 7962SOL    MW431622   2.188   2.110   0.494  0.0115  0.5644  0.4447
 7963SOL     OW31623   5.971   0.875   5.845  0.0732 -0.0101  0.2490
 7963SOL    HW231624   5.996   0.817   5.773  0.8856  1.3881 -0.6387
 7963SOL    HW331625   6.002   0.831   5.923  0.0537 -1.1028 -0.3429
 7963SOL    MW431626   5.978   0.862   5.846  0.9217 -0.0688  0.5300
 7964SOL     OW31627   2.128   5.507   0.202 -0.4469  0.4240 -0.4722
 7964SOL    HW231628   2.131   5.602   0.193  1.4761  0.2946 -1.8861
 7964SOL    HW331629   2.089   5.476   0.120 -1.1078 -0.0279 -0.0012
 7964SOL    MW431630   2.123   5.515   0.190  0.2910  0.6166  0.4337
 7965SOL     OW31631   4.330   5.779   3.643  0.3065 -0.1084  0.3105
 7965SOL    HW231632   4.288   5.863   3.624 -0.3616 -0.1376  1.5495
 7965SOL    HW331633   4.419   5.802   3.671 -0.3363  0.3463  2.1151
 7965SOL    MW431634   4.336   5.793   3.644  0.3078  0.7250  0.2277
 7966SOL     OW31635   0.161   5.391   3.904 -0.2079 -0.8845  0.1666
 7966SOL    HW231636   0.133   5.420   3.991  0.4969 -1.0570  0.4560
 7966SOL    HW331637   0.103   5.439   3.844  0.8885  1.1533  0.6309
 7966SOL    MW431638   0.150   5.401   3.908  0.3080 -0.9179 -0.1321
 7967SOL     OW31639   4.069   5.274   1.787 -0.0357 -0.2330  0.1544
 7967SOL    HW231640   4.099   5.364   1.802  0.2797 -0.1488 -0.9038
 7967SOL    HW331641   4.119   5.222   1.850  0.0238  0.2879  0.5496
 7967SOL    MW431642   4.080   5.279   1.797 -0.4114  0.2711 -0.3155
 7968SOL     OW31643   3.316   0.595   0.809 -0.3066 -0.5776 -0.6617
 7968SOL    HW231644   3.362   0.527   0.760  0.9404 -0.1036 -0.1689
 7968SOL    HW331645   3.226   0.592   0.775 -0.1663 -2.1747 -0.9335
 7968SOL    MW431646   3.310   0.586   0.798  0.3487 -0.1114 -0.2106
 7969SOL     OW31647   0.619   3.244   4.038 -0.6476  0.1849  0.3563
 7969SOL    HW231648   0.713   3.243   4.024 -0.7207  1.4175 -0.3542
 7969SOL    HW331649   0.609   3.254   4.133 -0.0705  0.0642  0.4349
 7969SOL    MW431650   0.630   3.245   4.049  0.9339 -0.5112 -0.3186
 7970SOL     OW31651   3.546   3.973   6.207  0.1200  0.8258  0.0043
 7970SOL    HW231652   3.636   3.954   6.181 -0.1928 -0.7476 -0.0469
 7970SOL    HW331653   3.493   3.910   6.158 -0.8880  0.7816  1.0951
 7970SOL    MW431654   3.551   3.962   6.197  0.1004 -0.5139  0.3695
 7971SOL     OW31655   2.022   6.010   6.299 -0.2285  0.5295  0.0900
 7971SOL    HW231656   2.081   6.073   6.256  1.0775 -0.6543  0.0503
 7971SOL    HW331657   1.983   6.059   6.371  0.9990  1.3202  0.2628
 7971SOL    MW431658   2.025   6.025   6.303  0.0010  0.5370  0.2249
 7972SOL     OW31659   3.665   4.651   1.952 -0.1335  0.5300 -0.1263
 7972SOL    HW231660   3.632   4.686   1.869  0.0278  0.2430 -0.3161
 7972SOL    HW331661   3.597   4.589   1.980 -0.6029  1.2710  0.4072
 7972SOL    MW431662   3.651   4.647   1.945 -0.3019  1.0074  0.8086
 7973SOL     OW31663   1.648   4.940   3.576 -0.3384 -0.3214 -0.5135
 7973SOL    HW231664   1.622   4.848   3.577 -2.3797  0.1848 -0.7974
 7973SOL    HW331665   1.655   4.964   3.669  0.1472 -0.7467 -0.4393
 7973SOL    MW431666   1.645   4.931   3.588  0.7014  0.1923  1.1238
 7974SOL     OW31667   5.814   6.369   1.190 -0.2038  0.1281  0.0327
 7974SOL    HW231668   5.858   6.290   1.159 -1.7290 -0.8440  0.2220
 7974SOL    HW331669   5.867   6.398   1.264  0.2777 -0.8472  0.0931
 7974SOL    MW431670   5.827   6.362   1.196 -0.2781  0.4745 -0.3073
 7975SOL     OW31671   2.438   0.460   5.479 -0.1547  0.3203  0.8601
 7975SOL    HW231672   2.373   0.506   5.532  1.1225  2.4994  0.6619
 7975SOL    HW331673   2.431   0.499   5.392 -1.2542 -2.2291 -0.2810
 7975SOL    MW431674   2.429   0.471   5.475  0.8036  0.5537 -0.0985
 7976SOL     OW31675   0.095   5.216   0.197 -0.1962  0.2020 -0.2736
 7976SOL    HW231676   0.106   5.305   0.232 -0.7854 -0.6331  2.2155
 7976SOL    HW331677   0.006   5.217   0.160  0.2488  0.9506 -1.4058
 7976SOL    MW431678   0.085   5.228   0.197  0.2219 -0.1529 -0.4435
 7977SOL     OW31679   3.686   1.417   0.142 -0.1496  0.0457  0.3207
 7977SOL    HW231680   3.630   1.472   0.198 -0.0370  1.6918 -1.0720
 7977SOL    HW331681   3.719   1.478   0.076  1.9593 -1.2443  0.1122
 7977SOL    MW431682   3.683   1.433   0.140  0.2703  0.2053 -0.0333
 7978SOL     OW31683   2.336   6.376   3.789  0.1396  0.0930 -0.5894
 7978SOL    HW231684   2.360   6.440   3.721 -1.5862  1.9645  0.4590
 7978SOL    HW331685   2.315   6.296   3.740 -0.3028  1.1453 -2.2087
 7978SOL    MW431686   2.336   6.374   3.773 -0.0759 -0.0448 -0.6131
 7979SOL     OW31687   0.305   6.380   4.276  0.0915  0.1369  0.5935
 7979SOL    HW231688   0.217   6.412   4.257  0.1601  0.2462  0.4557
 7979SOL    HW331689   0.349   6.455   4.316  0.6728  0.6526 -0.9645
 7979SOL    MW431690   0.299   6.394   4.279 -0.3726  0.1482 -0.3688
 7980SOL     OW31691   3.972   0.911   5.274 -0.2225 -0.3348 -0.0690
 7980SOL    HW231692   4.021   0.973   5.220 -2.6774  1.8928 -0.0021
 7980SOL    HW331693   4.018   0.828   5.264  2.4707  1.1668 -1.2967
 7980SOL    MW431694   3.984   0.908   5.265  0.1394  0.3968  0.5910
 7981SOL     OW31695   5.522   2.890   3.895  0.1047  0.0796 -0.0373
 7981SOL    HW231696   5.535   2.879   3.989 -3.6389 -0.7267  0.5516
 7981SOL    HW331697   5.556   2.978   3.876  1.1964  0.1509  1.9842
 7981SOL    MW431698   5.528   2.901   3.905  0.1290  0.0500  0.4029
 7982SOL     OW31699   3.814   6.157   3.678  0.3207  0.6260  0.2333
 7982SOL    HW231700   3.720   6.141   3.669  0.5601 -0.9275  0.2276
 7982SOL    HW331701   3.829   6.238   3.629 -0.9167  0.5918 -0.2479
 7982SOL    MW431702   3.803   6.166   3.671  0.2875 -0.8763  0.3249
 7983SOL     OW31703   5.239   2.786   5.201 -0.0276 -0.1751 -0.6387
 7983SOL    HW231704   5.156   2.828   5.221 -0.2689 -0.6459 -0.6249
 7983SOL    HW331705   5.300   2.819   5.267  0.1011  1.0683 -1.3523
 7983SOL    MW431706   5.236   2.796   5.212 -0.3557  0.3709  0.5898
 7984SOL     OW31707   4.162   6.264   0.449  0.0593  0.6412 -0.4301
 7984SOL    HW231708   4.193   6.273   0.359 -0.1238  0.8534 -0.4746
 7984SOL    HW331709   4.198   6.181   0.479 -1.2513 -0.2648 -1.2549
 7984SOL    MW431710   4.171   6.255   0.441  0.3991  0.8587 -0.0627
 7985SOL     OW31711   3.291   2.265   1.969  0.1625  0.3794  0.4481
 7985SOL    HW231712   3.293   2.254   1.874 -0.3491 -2.0041  0.6359
 7985SOL    HW331713   3.202   2.296   1.987 -0.7898 -2.0057  0.2859
 7985SOL    MW431714   3.280   2.267   1.959  0.1569 -0.0663 -0.3045
 7986SOL     OW31715   1.637   6.382   2.325  0.3975 -0.1640 -0.1117
 7986SOL    HW231716   1.669   6.294   2.342 -1.0172 -0.5592  0.5786
 7986SOL    HW331717   1.674   6.435   2.395 -1.6888 -0.9237  1.6421
 7986SOL    MW431718   1.646   6.378   2.336 -0.0716 -0.4370  0.3301
 7987SOL     OW31719   4.577   1.972   3.060 -0.2095 -0.1852 -0.2353
 7987SOL    HW231720   4.550   1.971   3.152  1.6021 -0.4654  0.3325
 7987SOL    HW331721   4.586   1.880   3.037  2.7482 -0.1482  0.4328
 7987SOL    MW431722   4.575   1.960   3.069 -0.3470  0.1068 -0.1530
 7988SOL     OW31723   3.865   3.330   6.096  0.3502  0.0139 -0.0354
 7988SOL    HW231724   3.900   3.348   6.009 -0.9759 -0.5212 -0.7123
 7988SOL    HW331725   3.805   3.256   6.082  1.9449 -1.7309  1.7611
 7988SOL    MW431726   3.861   3.323   6.082  0.6287 -0.4888  0.5723
 7989SOL     OW31727   3.579   0.260   5.218  0.2219  0.2349  0.3768
 7989SOL    HW231728   3.551   0.345   5.253 -1.5892 -0.7184  1.3747
 7989SOL    HW331729   3.536   0.196   5.274 -0.3203 -1.3598 -1.7595
 7989SOL    MW431730   3.569   0.263   5.230  0.1836 -0.2315  0.1282
 7990SOL     OW31731   3.537   2.697   4.828 -0.0361  0.0835 -0.1577
 7990SOL    HW231732   3.613   2.683   4.885 -0.1048 -2.4172 -0.5880
 7990SOL    HW331733   3.463   2.664   4.878 -0.0726 -2.3542 -1.6677
 7990SOL    MW431734   3.538   2.691   4.842 -0.4264  0.2347  0.0849
 7991SOL     OW31735   3.025   3.345   2.533  0.0925  0.0485 -0.0206
 7991SOL    HW231736   3.000   3.351   2.440  1.3833  1.2304 -0.3182
 7991SOL    HW331737   3.001   3.430   2.569  1.7522  0.4817  0.1481
 7991SOL    MW431738   3.018   3.357   2.525 -0.3143  0.3818 -0.2862
 7992SOL     OW31739   2.706   3.504   3.043  0.0670 -0.0322 -0.0133
 7992SOL    HW231740   2.684   3.516   2.950 -0.5875  1.4936  0.2938
 7992SOL    HW331741   2.801   3.496   3.044  0.0990  0.0889 -0.8098
 7992SOL    MW431742   2.716   3.505   3.031 -0.1002 -0.4667  0.5303
 7993SOL     OW31743   5.247   5.162   2.198 -0.4226  0.2821  0.4965
 7993SOL    HW231744   5.243   5.242   2.146  1.2342 -0.6125 -1.1096
 7993SOL    HW331745   5.334   5.163   2.237  0.5254 -1.7428 -1.3526
 7993SOL    MW431746   5.258   5.173   2.196  0.1598  0.4733 -0.5015
 7994SOL     OW31747   3.838   5.586   4.381  0.2889  0.2242 -0.0844
 7994SOL    HW231748   3.915   5.545   4.341  1.4765 -0.1149  2.3014
 7994SOL    HW331749   3.766   5.525   4.363  0.8260 -0.0494 -1.3733
 7994SOL    MW431750   3.839   5.572   4.373 -0.1642 -0.3812 -0.3308
 7995SOL     OW31751   3.508   3.008   5.279 -0.1723 -0.3669 -0.0849
 7995SOL    HW231752   3.500   2.923   5.235 -0.9569  0.0390 -0.7557
 7995SOL    HW331753   3.553   3.063   5.215  0.0128 -0.1695  0.2125
 7995SOL    MW431754   3.513   3.004   5.265 -0.4042  0.0913  0.1367
 7996SOL     OW31755   3.744   3.340   2.241  0.2551  0.6675  0.3375
 7996SOL    HW231756   3.795   3.264   2.211 -0.0090  0.5478  0.1896
 7996SOL    HW331757   3.717   3.384   2.161  0.4487  0.9475  0.4255
 7996SOL    MW431758   3.747   3.336   2.226  0.0595 -0.6894  0.2970
 7997SOL     OW31759   2.354   0.811   5.423  0.5388 -0.1601 -0.1015
 7997SOL    HW231760   2.404   0.749   5.371  3.8481  1.2882  1.0832
 7997SOL    HW331761   2.288   0.757   5.467  1.4353 -2.3323 -1.2435
 7997SOL    MW431762   2.352   0.796   5.422  1.0683 -0.4928 -0.4136
 7998SOL     OW31763   4.891   2.521   6.239  0.1452 -0.2224  0.2145
 7998SOL    HW231764   4.800   2.526   6.267  0.3520  2.0051  0.6811
 7998SOL    HW331765   4.904   2.599   6.185  0.7038 -2.5941 -3.4362
 7998SOL    MW431766   4.881   2.532   6.235  0.2821 -0.1358 -0.5062
 7999SOL     OW31767   5.412   5.916   3.241 -0.1788  0.1553 -0.6349
 7999SOL    HW231768   5.318   5.895   3.247 -0.8079  3.0932  1.6311
 7999SOL    HW331769   5.445   5.904   3.330  1.1733  1.0226 -1.0036
 7999SOL    MW431770   5.404   5.911   3.253 -0.3402  0.4189  0.2914
 8000SOL     OW31771   0.715   4.181   6.176  0.0724  0.1582  1.1152
 8000SOL    HW231772   0.710   4.276   6.167 -0.7345  0.0162 -0.2300
 8000SOL    HW331773   0.768   4.167   6.254  0.5811  1.7077  1.0810
 8000SOL    MW431774   0.721   4.191   6.185 -0.5111  0.0551 -0.1196
 8001SOL     OW31775   5.698   5.309   0.787 -0.6307 -0.4942 -0.4677
 8001SOL    HW231776   5.721   5.401   0.794  1.1334 -0.9316 -0.0501
 8001SOL    HW331777   5.683   5.296   0.693 -2.3536  0.4972 -0.3763
 8001SOL    MW431778   5.699   5.319   0.775 -0.3349  0.1134 -0.0725
 8002SOL     OW31779   5.862   1.534   0.257 -0.6591 -0.0926 -0.3983
 8002SOL    HW231780   5.933   1.553   0.197  0.5925 -0.5485  0.8868
 8002SOL    HW331781   5.839   1.443   0.239 -1.6763  0.3616 -1.5373
 8002SOL    MW431782   5.868   1.524   0.247 -0.7200 -0.0593  0.2619
 8003SOL     OW31783   1.476   2.791   2.784  0.3909 -0.3256 -0.4108
 8003SOL    HW231784   1.548   2.786   2.847 -0.0386  0.2117  0.1296
 8003SOL    HW331785   1.500   2.863   2.726  0.8118 -0.8537 -0.9147
 8003SOL    MW431786   1.489   2.800   2.784 -0.0992 -0.0730  0.3361
 8004SOL     OW31787   1.249   6.261   2.559  1.1770 -0.2346 -0.1103
 8004SOL    HW231788   1.259   6.354   2.582 -0.5824 -0.2983  1.1498
 8004SOL    HW331789   1.249   6.216   2.643 -2.5883 -0.8287 -0.2794
 8004SOL    MW431790   1.251   6.268   2.573  0.1821  0.3192 -0.2441
 8005SOL     OW31791   4.883   0.673   6.266  0.5107  0.1174  0.3387
 8005SOL    HW231792   4.851   0.763   6.276 -0.7652  0.1162 -2.5216
 8005SOL    HW331793   4.848   0.626   6.341  0.5098  1.8191  1.4525
 8005SOL    MW431794   4.874   0.679   6.277 -0.5635  0.1020 -0.5169
 8006SOL     OW31795   5.812   6.244   0.840  0.8654  0.1742  0.4032
 8006SOL    HW231796   5.880   6.216   0.903  0.3804  0.2780  0.9818
 8006SOL    HW331797   5.749   6.172   0.840  0.4366  0.5452  0.6704
 8006SOL    MW431798   5.813   6.230   0.849 -0.4974 -0.3553  0.3922
 8007SOL     OW31799   4.352   1.000   0.486 -0.1546 -0.1449 -0.2326
 8007SOL    HW231800   4.321   1.016   0.575 -0.8173  2.9338 -0.9280
 8007SOL    HW331801   4.272   0.980   0.437 -0.4203  2.2495 -0.8915
 8007SOL    MW431802   4.337   0.999   0.491 -0.4240 -0.6722 -0.1883
 8008SOL     OW31803   4.986   0.713   0.466  0.1926  0.2951  0.3367
 8008SOL    HW231804   4.908   0.766   0.453  1.1886  1.8282  0.3123
 8008SOL    HW331805   4.958   0.624   0.447 -1.3893  0.8851 -0.2754
 8008SOL    MW431806   4.972   0.708   0.461  0.3707  0.5813  0.4756
 8009SOL     OW31807   6.175   4.499   0.870  0.1102 -0.4543 -0.0013
 8009SOL    HW231808   6.141   4.410   0.873 -1.6706  0.1244 -1.3804
 8009SOL    HW331809   6.261   4.490   0.829 -0.5343 -1.4268 -1.2026
 8009SOL    MW431810   6.182   4.486   0.865  0.3331 -0.0623 -0.3077
 8010SOL     OW31811   4.784   0.949   6.325 -0.4300  0.3040 -0.3165
 8010SOL    HW231812   4.765   0.922   6.235  0.1410 -1.1766 -0.0214
 8010SOL    HW331813   4.852   1.016   6.316  1.0500 -1.2018 -0.9449
 8010SOL    MW431814   4.790   0.954   6.312 -0.2366  0.0604  0.4662
 8011SOL     OW31815   5.680   2.709   5.342 -0.4084  0.1098 -0.0628
 8011SOL    HW231816   5.602   2.764   5.332 -1.8068 -1.4979  1.3942
 8011SOL    HW331817   5.741   2.763   5.392 -0.2377  1.6434 -1.7873
 8011SOL    MW431818   5.678   2.724   5.347  0.1061  0.5819 -0.1941
 8012SOL     OW31819   4.807   4.799   5.764 -0.0347  0.1778 -0.0100
 8012SOL    HW231820   4.762   4.714   5.759  1.4504 -0.5915 -1.2094
 8012SOL    HW331821   4.751   4.852   5.820 -1.0222 -1.5843  0.7736
 8012SOL    MW431822   4.793   4.795   5.771 -0.3022  0.3918 -0.2278
 8013SOL     OW31823   4.741   5.360   4.785  0.0822  0.3171 -0.3891
 8013SOL    HW231824   4.695   5.310   4.852  0.3733  0.3375 -0.1696
 8013SOL    HW331825   4.774   5.295   4.724  0.5533  0.2207 -0.0464
 8013SOL    MW431826   4.739   5.345   4.786 -0.7398 -0.0607 -0.4007
 8014SOL     OW31827   3.620   1.953   0.501  0.4105 -0.5407  0.6926
 8014SOL    HW231828   3.713   1.935   0.517  0.8668  0.2923 -0.8353
 8014SOL    HW331829   3.620   2.027   0.440 -1.1602 -2.2369 -1.5431
 8014SOL    MW431830   3.632   1.960   0.495  0.2730  0.1610  0.2339
 8015SOL     OW31831   2.312   1.067   2.240 -0.1386 -0.3768  0.0492
 8015SOL    HW231832   2.266   1.078   2.323  1.8136  4.3698  0.8290
 8015SOL    HW331833   2.402   1.043   2.265  0.9447  2.8297 -0.3670
 8015SOL    MW431834   2.318   1.065   2.254  0.2079  0.2957  0.1433
 8016SOL     OW31835   2.925   3.838   4.290 -0.1090  0.3095 -0.0827
 8016SOL    HW231836   2.916   3.824   4.384 -0.6557 -0.7568 -0.2807
 8016SOL    HW331837   2.902   3.930   4.277 -0.1408  0.4354  0.8058
 8016SOL    MW431838   2.921   3.848   4.301  0.3612  0.1604  0.3241
 8017SOL     OW31839   2.123   1.872   3.483  0.0774 -0.5377  0.2280
 8017SOL    HW231840   2.058   1.846   3.419 -0.0701  0.3881 -0.0125
 8017SOL    HW331841   2.076   1.871   3.567 -0.1597 -0.1954  0.1008
 8017SOL    MW431842   2.108   1.868   3.486 -0.2102 -0.8948 -0.3507
 8018SOL     OW31843   5.129   3.078   2.320 -0.2597 -0.3662 -0.0423
 8018SOL    HW231844   5.199   3.032   2.272  0.4422 -0.4923  1.0659
 8018SOL    HW331845   5.057   3.015   2.323  0.5574 -1.2881  1.1365
 8018SOL    MW431846   5.129   3.063   2.314 -0.8135  0.6110  0.2742
 8019SOL     OW31847   2.002   2.897   4.455  0.4129  0.4859 -0.1489
 8019SOL    HW231848   2.071   2.955   4.487 -0.3264  0.0924  2.3042
 8019SOL    HW331849   2.025   2.811   4.489  1.1313 -0.6748 -3.1832
 8019SOL    MW431850   2.014   2.893   4.464  0.2701 -0.1813 -0.0021
 8020SOL     OW31851   5.677   1.258   4.348  0.0780  0.4256  0.1145
 8020SOL    HW231852   5.729   1.332   4.382 -0.3658  0.1157  1.5537
 8020SOL    HW331853   5.740   1.206   4.298  1.0037  0.4727  1.1778
 8020SOL    MW431854   5.692   1.261   4.346  0.4892 -0.0201 -0.1027
 8021SOL     OW31855   0.032   3.363   2.958 -0.0489  0.6481 -0.1992
 8021SOL    HW231856   0.116   3.374   3.003 -0.0076  1.2291 -0.4176
 8021SOL    HW331857   0.049   3.294   2.894 -0.0003  0.0926  0.3926
 8021SOL    MW431858   0.045   3.355   2.956  0.1572 -0.0422  0.6555
 8022SOL     OW31859   4.550   3.556   4.864  0.1606  0.5251  0.3060
 8022SOL    HW231860   4.514   3.568   4.776  0.3697 -1.5949 -0.1256
 8022SOL    HW331861   4.483   3.591   4.922  0.1051  2.1639 -0.6728
 8022SOL    MW431862   4.537   3.562   4.860  0.5107 -0.2980 -0.4785
 8023SOL     OW31863   1.870   5.334   2.420 -0.2282 -0.4114  0.1548
 8023SOL    HW231864   1.778   5.316   2.405 -0.3618 -1.8460  2.1657
 8023SOL    HW331865   1.873   5.371   2.509  0.9676  1.6040 -0.6567
 8023SOL    MW431866   1.859   5.336   2.430 -0.0503  0.1648  0.7169
 8024SOL     OW31867   4.591   3.867   6.002 -0.3364  0.2631 -0.3015
 8024SOL    HW231868   4.593   3.951   5.956  0.6195  0.3561 -0.1141
 8024SOL    HW331869   4.645   3.809   5.948  0.3655  0.2311  0.4048
 8024SOL    MW431870   4.599   3.871   5.989  0.0759 -0.4249 -0.5398
 8025SOL     OW31871   5.526   3.872   5.015 -0.5496  0.0518  0.6120
 8025SOL    HW231872   5.557   3.890   4.927  0.2914  0.5654  0.9979
 8025SOL    HW331873   5.432   3.890   5.012 -0.6110 -0.3830 -0.2875
 8025SOL    MW431874   5.518   3.877   5.003  0.3712  0.7338  0.2685
 8026SOL     OW31875   3.276   4.529   1.475 -0.2077 -0.5526  0.6910
 8026SOL    HW231876   3.361   4.569   1.456 -1.4489  1.4284 -1.2743
 8026SOL    HW331877   3.265   4.538   1.569  0.6237  1.7011  0.6378
 8026SOL    MW431878   3.285   4.535   1.485 -0.0976  0.2605  0.1570
 8027SOL     OW31879   6.172   5.241   4.138 -0.4467 -0.3116 -0.0720
 8027SOL    HW231880   6.186   5.159   4.092  0.6443  0.0477 -0.4234
 8027SOL    HW331881   6.119   5.218   4.214  2.2506 -1.9238  1.5202
 8027SOL    MW431882   6.167   5.227   4.142  0.2909  0.0692 -0.2243
 8028SOL     OW31883   5.675   2.961   4.779  0.2195  0.0854  0.5880
 8028SOL    HW231884   5.612   2.966   4.851  1.0371  1.1187  1.2611
 8028SOL    HW331885   5.741   3.026   4.800  1.9826 -1.5257  0.3492
 8028SOL    MW431886   5.675   2.970   4.791 -0.0900  0.6591 -0.5240
 8029SOL     OW31887   1.145   4.696   2.523  0.1813 -0.2066  0.3698
 8029SOL    HW231888   1.236   4.701   2.552  0.4039 -0.8902 -0.1749
 8029SOL    HW331889   1.094   4.683   2.604  0.5185  0.5934  0.7177
 8029SOL    MW431890   1.150   4.695   2.538 -0.3140 -0.1477 -0.4534
 8030SOL     OW31891   0.562   2.523   5.839  0.2858  0.4382 -0.6246
 8030SOL    HW231892   0.565   2.549   5.932 -0.8352  1.7131 -0.9134
 8030SOL    HW331893   0.629   2.577   5.798 -0.3678  1.1144 -0.8209
 8030SOL    MW431894   0.571   2.534   5.846 -0.4606 -0.3346 -0.3503
 8031SOL     OW31895   0.398   0.784   0.651 -0.1748  0.8484 -0.2503
 8031SOL    HW231896   0.471   0.754   0.597  1.4679  0.3495  2.0959
 8031SOL    HW331897   0.321   0.775   0.595  1.4340  0.6348 -2.5587
 8031SOL    MW431898   0.398   0.779   0.637  0.4749  0.4005  0.0159
 8032SOL     OW31899   3.077   0.975   0.204 -0.0774  0.2080  0.1931
 8032SOL    HW231900   3.060   1.047   0.265 -1.9730  0.8476 -0.9904
 8032SOL    HW331901   3.133   1.013   0.137 -0.1076  0.2398  0.1860
 8032SOL    MW431902   3.082   0.990   0.203  0.5299 -0.6342  0.2270
 8033SOL     OW31903   0.570   3.497   3.660 -0.1638 -0.1158  0.1224
 8033SOL    HW231904   0.650   3.548   3.649 -0.1929 -0.4582 -2.5497
 8033SOL    HW331905   0.500   3.562   3.658 -0.0501  0.0230  0.5058
 8033SOL    MW431906   0.571   3.512   3.658 -0.1270  0.6758  0.1415
 8034SOL     OW31907   1.126   6.098   5.169  0.3393 -0.0379  0.0523
 8034SOL    HW231908   1.096   6.053   5.090 -0.8169 -0.1203  0.5233
 8034SOL    HW331909   1.112   6.191   5.150  1.1965  0.0322 -0.2903
 8034SOL    MW431910   1.120   6.105   5.156 -0.3582 -0.5098 -0.0756
 8035SOL     OW31911   0.758   0.415   1.566 -0.8097  0.2057 -0.5759
 8035SOL    HW231912   0.730   0.334   1.609 -0.8919 -0.1884 -1.3357
 8035SOL    HW331913   0.757   0.481   1.634  1.7733 -0.9488  0.7312
 8035SOL    MW431914   0.754   0.413   1.581 -0.0073 -0.1120 -0.0166
 8036SOL     OW31915   1.417   2.820   0.406  0.0938 -0.2025 -0.0601
 8036SOL    HW231916   1.326   2.812   0.435  0.0968  0.8288  0.2550
 8036SOL    HW331917   1.432   2.914   0.400  0.8651 -0.3816 -1.0140
 8036SOL    MW431918   1.407   2.831   0.409 -0.1334  0.1435  0.1809
 8037SOL     OW31919   2.640   3.708   2.055  0.1299 -0.2979  0.6591
 8037SOL    HW231920   2.721   3.758   2.047 -1.1159  1.7416  0.1623
 8037SOL    HW331921   2.577   3.754   2.000 -1.6245 -1.3131  1.7078
 8037SOL    MW431922   2.642   3.720   2.047  0.5603  0.1594 -0.1942
 8038SOL     OW31923   1.641   2.078   0.899  0.1742 -0.1628 -0.2101
 8038SOL    HW231924   1.566   2.085   0.839 -0.6843 -2.6107  0.4444
 8038SOL    HW331925   1.674   1.989   0.885  1.4124  0.0232  1.3021
 8038SOL    MW431926   1.635   2.067   0.889  0.5083 -0.0329  0.0895
 8039SOL     OW31927   4.179   4.522   1.711  0.1643  0.3028 -0.6918
 8039SOL    HW231928   4.185   4.551   1.802  0.2373  0.3581 -0.7142
 8039SOL    HW331929   4.260   4.473   1.696 -0.5709 -1.1356 -0.2198
 8039SOL    MW431930   4.191   4.519   1.721  0.1513 -0.3308  0.0696
 8040SOL     OW31931   3.262   1.919   5.270 -0.1716 -0.4879 -0.0143
 8040SOL    HW231932   3.239   1.834   5.233  0.6561  0.5313 -3.1474
 8040SOL    HW331933   3.349   1.907   5.309 -0.5835 -1.3294  0.6631
 8040SOL    MW431934   3.270   1.907   5.271 -0.1083 -0.2727  0.0126
 8041SOL     OW31935   6.172   2.627   0.884 -0.0197 -0.1979 -0.0331
 8041SOL    HW231936   6.219   2.546   0.862  1.7224  0.8295 -0.3551
 8041SOL    HW331937   6.231   2.673   0.944 -0.9333  0.8718  0.0694
 8041SOL    MW431938   6.186   2.622   0.889 -0.3466  0.2376 -0.8455
 8042SOL     OW31939   0.505   3.455   1.594 -0.6374 -0.5239 -0.4234
 8042SOL    HW231940   0.556   3.467   1.674 -0.6328 -0.4305 -0.4396
 8042SOL    HW331941   0.506   3.542   1.553 -0.8221 -0.5173 -0.4148
 8042SOL    MW431942   0.512   3.468   1.599 -0.6668 -0.0244 -0.7416
 8043SOL     OW31943   3.340   3.253   2.556  0.1440  0.2084 -0.5150
 8043SOL    HW231944   3.250   3.286   2.552 -0.0502 -0.0655  1.0113
 8043SOL    HW331945   3.395   3.328   2.535 -0.4178  0.4488 -1.1681
 8043SOL    MW431946   3.335   3.267   2.553 -0.5100 -0.0884 -0.7169
 8044SOL     OW31947   0.486   1.960   3.020 -0.1295 -0.5608  0.4739
 8044SOL    HW231948   0.476   1.901   3.095  2.2989 -2.8332 -0.8499
 8044SOL    HW331949   0.467   1.906   2.944  2.7103  0.1186 -0.8310
 8044SOL    MW431950   0.482   1.945   3.020  0.0137  0.5350 -0.4518
 8045SOL     OW31951   4.791   4.021   3.992 -0.2090  0.2837 -0.3308
 8045SOL    HW231952   4.733   4.082   3.946 -1.3885  0.8905  1.8228
 8045SOL    HW331953   4.733   3.974   4.052  1.2763 -0.3886  0.6192
 8045SOL    MW431954   4.776   4.023   3.993 -0.2116  0.2177 -0.1137
 8046SOL     OW31955   5.027   2.921   1.778  0.2385  0.2894 -0.1425
 8046SOL    HW231956   4.941   2.955   1.802  1.0308  1.9815  0.4263
 8046SOL    HW331957   5.020   2.827   1.791 -0.8195  0.6325  2.2223
 8046SOL    MW431958   5.014   2.913   1.783  0.5290  0.1524  0.4290
 8047SOL     OW31959   0.397   2.620   2.947 -0.6054  0.6045  0.1001
 8047SOL    HW231960   0.479   2.664   2.927 -1.1836  1.7866  0.2111
 8047SOL    HW331961   0.330   2.686   2.930 -1.4047  0.2648  1.7202
 8047SOL    MW431962   0.399   2.634   2.942  0.1934 -0.6313  0.0847
 8048SOL     OW31963   4.280   6.041   0.166  0.6692  0.1520 -0.1110
 8048SOL    HW231964   4.214   5.996   0.114  0.7583 -0.2983  0.1633
 8048SOL    HW331965   4.318   5.973   0.222 -0.1918  0.8117  1.3400
 8048SOL    MW431966   4.276   6.026   0.166  0.0781 -0.3805 -0.1179
 8049SOL     OW31967   2.461   1.125   5.236 -0.2833 -0.3561 -0.6379
 8049SOL    HW231968   2.509   1.206   5.217 -0.6460  0.2131  0.7649
 8049SOL    HW331969   2.396   1.119   5.167  0.2806  0.1090 -1.2239
 8049SOL    MW431970   2.459   1.135   5.225 -0.0967 -0.2238 -0.8496
 8050SOL     OW31971   0.359   3.220   0.262 -0.3708  0.1669  0.5773
 8050SOL    HW231972   0.310   3.186   0.187  0.4141  0.7746 -0.2273
 8050SOL    HW331973   0.375   3.312   0.242  1.1129 -0.0141  0.8016
 8050SOL    MW431974   0.354   3.227   0.250 -0.0804  0.6588 -0.0312
 8051SOL     OW31975   1.477   3.802   0.086  0.0870 -0.1470  0.3214
 8051SOL    HW231976   1.558   3.799   0.136  1.2225  1.7691 -1.2210
 8051SOL    HW331977   1.455   3.896   0.082 -0.7859 -0.3707 -1.3908
 8051SOL    MW431978   1.485   3.814   0.092  0.0160 -0.0380 -0.1099
 8052SOL     OW31979   2.470   5.245   4.359 -0.3415 -0.1486 -0.4293
 8052SOL    HW231980   2.384   5.278   4.384 -1.7438 -4.5913  1.6862
 8052SOL    HW331981   2.457   5.208   4.271 -0.6887 -0.8753 -0.0845
 8052SOL    MW431982   2.457   5.244   4.351  0.0527 -0.2625 -0.2462
 8053SOL     OW31983   3.731   1.346   1.179 -0.0375  0.0588 -0.3965
 8053SOL    HW231984   3.700   1.268   1.226 -1.3101  0.1713 -1.0089
 8053SOL    HW331985   3.792   1.387   1.240  0.7021 -1.4359 -0.0749
 8053SOL    MW431986   3.735   1.341   1.194 -0.3224 -0.1374  0.4609
 8054SOL     OW31987   5.148   6.284   5.201 -0.3952 -0.1874 -0.2394
 8054SOL    HW231988   5.165   6.216   5.136 -1.7183 -0.5596 -0.2208
 8054SOL    HW331989   5.153   6.366   5.152 -0.6399 -0.4220 -0.6599
 8054SOL    MW431990   5.151   6.286   5.186 -0.6935  0.5569  0.5972
 8055SOL     OW31991   4.976   3.428   4.669  0.0306  0.3521  0.1807
 8055SOL    HW231992   5.064   3.407   4.638 -0.3083  0.5388 -0.9384
 8055SOL    HW331993   4.990   3.471   4.753  0.9851  0.0817  0.1751
 8055SOL    MW431994   4.990   3.431   4.676 -0.2070 -0.2203  0.2868
 8056SOL     OW31995   4.239   3.087   3.785 -0.0498 -0.0585  0.2029
 8056SOL    HW231996   4.300   3.150   3.823  0.7925  0.4605 -1.8490
 8056SOL    HW331997   4.295   3.018   3.749 -0.8091 -0.6766  0.1817
 8056SOL    MW431998   4.254   3.086   3.785 -0.7109 -0.0155 -0.2224
 8057SOL     OW31999   1.712   0.867   0.407  0.5065 -0.0924 -0.1960
 8057SOL    HW232000   1.755   0.786   0.435 -0.7170 -0.6278  0.2328
 8057SOL    HW332001   1.783   0.929   0.395  1.4604 -1.1822 -0.3643
 8057SOL    MW432002   1.727   0.864   0.409 -0.0902  0.4328 -0.3162
 8058SOL     OW32003   1.110   4.367   5.006  0.3859 -0.0252 -0.1160
 8058SOL    HW232004   1.101   4.444   4.950 -0.5414 -0.4453 -0.5627
 8058SOL    HW332005   1.113   4.401   5.095 -0.1392  0.5199 -0.3064
 8058SOL    MW432006   1.109   4.381   5.010  0.5780  0.4386 -0.0323
 8059SOL     OW32007   3.256   1.615   5.221 -0.6712 -0.2605  0.6328
 8059SOL    HW232008   3.254   1.548   5.154 -1.5523  1.1112 -0.7806
 8059SOL    HW332009   3.176   1.602   5.271 -1.3531  0.3291 -0.2791
 8059SOL    MW432010   3.245   1.605   5.219  0.2566 -0.3527 -0.2756
 8060SOL     OW32011   5.138   1.988   2.238  0.3254  0.2927  0.7050
 8060SOL    HW232012   5.163   2.004   2.329 -1.3250 -0.7356  1.3871
 8060SOL    HW332013   5.097   1.902   2.238  2.4368 -0.8328 -1.5007
 8060SOL    MW432014   5.136   1.979   2.250 -0.5127  0.4443 -0.1601
 8061SOL     OW32015   2.928   5.943   2.825 -0.1114  0.1083  0.4910
 8061SOL    HW232016   2.947   5.965   2.734  0.2874 -0.2115  0.4959
 8061SOL    HW332017   2.997   5.988   2.875 -0.5471  0.5958  0.6703
 8061SOL    MW432018   2.940   5.952   2.820 -0.4013 -0.0851  0.5423
 8062SOL     OW32019   4.352   5.988   1.868  0.0370  0.4516  0.5467
 8062SOL    HW232020   4.350   5.893   1.882 -0.9972 -0.0085 -2.0625
 8062SOL    HW332021   4.265   6.017   1.895 -0.5315  0.2052 -0.9149
 8062SOL    MW432022   4.340   5.979   1.873  0.0098 -0.5752 -0.4254
 8063SOL     OW32023   6.263   3.082   6.343 -0.1649  0.3391  0.2346
 8063SOL    HW232024   6.261   3.098   6.249  0.3574 -1.5617 -0.1509
 8063SOL    HW332025   6.218   3.157   6.382  2.4245  2.8865 -1.2535
 8063SOL    MW432026   6.257   3.094   6.336 -0.6400 -0.5544 -0.3841
 8064SOL     OW32027   4.613   6.060   1.663 -0.7392  0.7009  0.2472
 8064SOL    HW232028   4.573   6.140   1.630 -0.5051  1.5336  1.8906
 8064SOL    HW332029   4.582   5.991   1.604 -0.7494  2.0215 -1.3328
 8064SOL    MW432030   4.604   6.061   1.651  0.1828  0.3570  0.4241
 8065SOL     OW32031   0.776   1.606   3.552  0.1224 -0.2346  0.3614
 8065SOL    HW232032   0.768   1.696   3.584  0.6876 -0.7187  1.9479
 8065SOL    HW332033   0.826   1.561   3.619  1.4672 -1.3147 -1.2685
 8065SOL    MW432034   0.781   1.612   3.565  0.4384 -0.2079  0.0264
 8066SOL     OW32035   5.988   1.411   1.822  0.3107 -0.3989  0.0918
 8066SOL    HW232036   5.953   1.499   1.810 -0.1340 -0.2892  1.8502
 8066SOL    HW332037   6.007   1.405   1.916  0.8187 -1.9984 -0.0725
 8066SOL    MW432038   5.986   1.422   1.833 -0.0262 -0.6843 -0.3537
 8067SOL     OW32039   6.221   0.484   5.611  0.5004 -0.0832 -0.3442
 8067SOL    HW232040   6.172   0.403   5.623 -1.7563  1.1661 -0.6742
 8067SOL    HW332041   6.259   0.476   5.523 -0.2373 -0.4965 -0.6289
 8067SOL    MW432042   6.220   0.472   5.601  0.1661  0.0778 -0.0801
 8068SOL     OW32043   5.842   3.751   2.828 -0.1647 -0.0337  0.0304
 8068SOL    HW232044   5.896   3.696   2.771 -1.7683 -0.1296 -1.4731
 8068SOL    HW332045   5.897   3.765   2.906  1.8453 -0.4421 -1.2220
 8068SOL    MW432046   5.857   3.746   2.831  0.9159  0.2988 -0.1716
 8069SOL     OW32047   5.402   5.482   2.522 -0.2171 -0.3852 -0.2716
 8069SOL    HW232048   5.412   5.559   2.466  0.5810  1.3184  2.0690
 8069SOL    HW332049   5.405   5.516   2.612  2.2926 -3.3238  0.9559
 8069SOL    MW432050   5.404   5.497   2.527 -0.1886  0.1289 -0.5653
 8070SOL     OW32051   3.020   3.852   0.954 -0.2766  0.0662 -0.1506
 8070SOL    HW232052   2.965   3.807   1.018 -0.4322  1.2270  0.5542
 8070SOL    HW332053   3.092   3.888   1.006  0.8273 -0.8932 -0.9641
 8070SOL    MW432054   3.023   3.851   0.970  0.1467  0.6143 -0.1323
 8071SOL     OW32055   3.007   3.368   2.240  0.1698  0.1443  0.1737
 8071SOL    HW232056   2.946   3.320   2.185  0.1314 -0.0694  0.3996
 8071SOL    HW332057   3.005   3.458   2.206  0.6356 -0.1206 -0.5956
 8071SOL    MW432058   2.999   3.373   2.228 -0.0863  0.1088  0.0347
 8072SOL     OW32059   2.418   4.860   0.540 -0.2331 -0.1552  0.1580
 8072SOL    HW232060   2.454   4.827   0.457 -0.0746  0.7249 -0.1288
 8072SOL    HW332061   2.489   4.910   0.579 -1.2554  2.0971 -0.6812
 8072SOL    MW432062   2.432   4.862   0.534  0.1475  0.5976 -0.0391
 8073SOL     OW32063   1.502   2.817   1.098 -0.0457 -0.1260  0.1052
 8073SOL    HW232064   1.551   2.735   1.090  1.7151  0.8802  0.2509
 8073SOL    HW332065   1.519   2.863   1.016 -0.8153  0.2160  0.1341
 8073SOL    MW432066   1.511   2.812   1.086 -0.0185  0.0617  0.4767
 8074SOL     OW32067   3.170   4.816   6.177 -0.1518  0.4118  0.2457
 8074SOL    HW232068   3.241   4.793   6.117 -0.7328  0.0616 -0.3356
 8074SOL    HW332069   3.207   4.881   6.236  0.6733  0.1615  0.0144
 8074SOL    MW432070   3.184   4.821   6.177 -0.1595  0.5611 -0.2491
 8075SOL     OW32071   2.169   2.330   2.128 -0.1404  0.7002  0.5013
 8075SOL    HW232072   2.191   2.422   2.110  2.6468  0.2835  1.2794
 8075SOL    HW332073   2.178   2.287   2.043  0.8272  0.7973  0.5395
 8075SOL    MW432074   2.173   2.337   2.114  0.1229  0.5893  1.0675
 8076SOL     OW32075   2.357   3.825   0.747  0.0259  0.6580  0.3103
 8076SOL    HW232076   2.273   3.856   0.713 -0.7820 -0.3074  1.3499
 8076SOL    HW332077   2.381   3.888   0.815 -0.6090  0.1173  1.0404
 8076SOL    MW432078   2.349   3.837   0.751  0.2413  0.3917  0.0651
 8077SOL     OW32079   1.133   5.820   1.650 -0.1721  0.3616  0.4442
 8077SOL    HW232080   1.200   5.889   1.658 -0.2285  0.6090 -0.9482
 8077SOL    HW332081   1.064   5.860   1.597 -0.6288 -0.4699  0.3973
 8077SOL    MW432082   1.133   5.835   1.644  0.0487  0.0291  0.4401
 8078SOL     OW32083   2.083   4.560   0.665 -0.2401  0.2981  0.0988
 8078SOL    HW232084   2.035   4.608   0.733  0.8645  0.9001  0.4779
 8078SOL    HW332085   2.015   4.532   0.604 -1.0673  1.2830  0.5203
 8078SOL    MW432086   2.068   4.563   0.666 -0.0748 -0.4288 -0.0540
 8079SOL     OW32087   5.902   5.963   0.879  0.3008  0.7225 -0.1327
 8079SOL    HW232088   5.850   5.943   0.801  0.4582  1.3881 -0.4176
 8079SOL    HW332089   5.991   5.936   0.855  0.2892  0.6166 -0.0566
 8079SOL    MW432090   5.907   5.957   0.865  0.3797 -0.3746 -0.4197
 8080SOL     OW32091   5.266   4.622   0.388  0.3257  0.5382  0.9685
 8080SOL    HW232092   5.233   4.658   0.471  2.0054  2.0666  1.0432
 8080SOL    HW332093   5.275   4.528   0.405  0.4400  0.7889  2.4597
 8080SOL    MW432094   5.263   4.614   0.401 -0.5705  0.0048 -0.8177
 8081SOL     OW32095   0.144   3.070   2.270 -0.7428  0.7031  0.1905
 8081SOL    HW232096   0.140   2.980   2.302 -0.2399  0.1285 -1.2697
 8081SOL    HW332097   0.236   3.095   2.277 -0.4519  0.2585 -1.4891
 8081SOL    MW432098   0.156   3.061   2.275  0.5142 -0.3848 -0.1333
 8082SOL     OW32099   3.209   1.738   3.153 -0.2187  0.1664 -0.3218
 8082SOL    HW232100   3.215   1.756   3.059 -2.7003  0.5096 -0.4923
 8082SOL    HW332101   3.227   1.644   3.160 -1.5276 -0.2045 -1.3964
 8082SOL    MW432102   3.212   1.728   3.141 -0.4960  0.2697  0.0853
 8083SOL     OW32103   0.079   3.128   1.371 -0.2934  0.3036  0.1685
 8083SOL    HW232104   0.059   3.037   1.390 -1.5578  0.4689 -0.2805
 8083SOL    HW332105   0.099   3.130   1.277  2.5939  0.0514  0.6746
 8083SOL    MW432106   0.079   3.116   1.361  0.2362 -0.1095 -0.8428
 8084SOL     OW32107   3.508   2.259   5.484  0.7271 -0.1489  0.2907
 8084SOL    HW232108   3.456   2.195   5.532 -0.3764 -0.8592 -1.7117
 8084SOL    HW332109   3.481   2.247   5.392  1.3461  2.3855 -0.2947
 8084SOL    MW432110   3.497   2.249   5.478  0.2095 -0.5402  0.7493
 8085SOL     OW32111   6.091   5.338   5.522  0.4284 -0.6703  0.3660
 8085SOL    HW232112   6.145   5.417   5.515 -0.1545 -0.3769 -1.5217
 8085SOL    HW332113   6.010   5.368   5.564  0.5429 -0.4602  0.4373
 8085SOL    MW432114   6.087   5.352   5.527  0.1246  0.3937  0.0606
 8086SOL     OW32115   1.980   0.771   0.041 -0.4041 -0.2209  0.5495
 8086SOL    HW232116   2.020   0.833  -0.020 -0.0122 -0.3786  0.6416
 8086SOL    HW332117   1.890   0.761   0.009 -0.2066 -0.2949  0.0040
 8086SOL    MW432118   1.974   0.778   0.028 -0.0280 -0.3007  0.1539
 8087SOL     OW32119   2.498   0.771   6.247  0.5356 -0.0619  0.2397
 8087SOL    HW232120   2.585   0.786   6.286  0.6335 -0.3118  0.1173
 8087SOL    HW332121   2.493   0.835   6.176  0.3996  0.3244  0.5889
 8087SOL    MW432122   2.509   0.782   6.243 -0.3180  0.2909  0.3564
 8088SOL     OW32123   1.780   2.580   6.007 -0.0743  0.6277 -0.6104
 8088SOL    HW232124   1.771   2.485   5.994  0.7543  0.6204 -1.2297
 8088SOL    HW332125   1.823   2.588   6.092 -0.8869  0.4861 -0.1752
 8088SOL    MW432126   1.784   2.569   6.016 -0.0168 -0.2596 -0.6368
 8089SOL     OW32127   6.006   2.085   1.995  0.1709 -0.0981 -0.0243
 8089SOL    HW232128   5.973   2.025   1.928 -0.7725 -0.1422  0.4621
 8089SOL    HW332129   6.040   2.028   2.064 -0.9806 -0.1104  0.5652
 8089SOL    MW432130   6.006   2.069   1.996  0.2031 -0.0311  0.0907
 8090SOL     OW32131   0.707   6.233   0.177  0.2235 -0.3812 -0.0315
 8090SOL    HW232132   0.666   6.252   0.262  1.3420 -0.7175  0.6010
 8090SOL    HW332133   0.801   6.241   0.194  0.6526 -3.2173 -0.4959
 8090SOL    MW432134   0.714   6.236   0.191 -0.2006 -0.9089  0.0450
 8091SOL     OW32135   2.387   0.170   1.265 -0.5405  0.4351 -0.3096
 8091SOL    HW232136   2.379   0.166   1.360  1.6460  0.3416 -0.0801
 8091SOL    HW332137   2.411   0.260   1.247  0.7977  0.0489 -0.5717
 8091SOL    MW432138   2.389   0.181   1.275  0.1929 -0.0383 -0.0820
 8092SOL     OW32139   1.052   4.381   3.807 -0.0040 -0.1795 -0.1555
 8092SOL    HW232140   1.040   4.287   3.822  0.2652  0.0694  2.0831
 8092SOL    HW332141   1.050   4.392   3.712  2.9794 -2.8758 -0.7017
 8092SOL    MW432142   1.050   4.370   3.797 -0.2492 -0.2281 -0.5439
 8093SOL     OW32143   0.926   2.293   2.204  0.0443  0.2164 -0.2516
 8093SOL    HW232144   0.980   2.226   2.247  1.7740  0.9966 -1.0875
 8093SOL    HW332145   0.846   2.248   2.180  1.7765 -2.0777 -2.2226
 8093SOL    MW432146   0.923   2.278   2.207 -0.0546 -0.4026  1.3366
 8094SOL     OW32147   4.899   2.182   0.278 -0.1288  0.0428  0.4322
 8094SOL    HW232148   4.972   2.149   0.331 -0.1477  1.6593  1.5508
 8094SOL    HW332149   4.940   2.244   0.217 -0.2204 -1.2078 -0.9580
 8094SOL    MW432150   4.914   2.186   0.277  0.2427 -0.3581  0.7727
 8095SOL     OW32151   0.050   4.381   3.264  0.3092  0.1001  0.0415
 8095SOL    HW232152   0.056   4.337   3.179 -4.7548 -1.1250 -0.0283
 8095SOL    HW332153   0.066   4.312   3.328  0.1282  0.0361  0.0187
 8095SOL    MW432154   0.053   4.366   3.262  0.6204  0.6220 -0.3379
 8096SOL     OW32155   5.228   3.571   0.289 -0.1314 -0.4057 -0.0650
 8096SOL    HW232156   5.157   3.513   0.319 -1.4522 -0.1784 -2.5250
 8096SOL    HW332157   5.264   3.527   0.212 -0.1769  1.3134 -1.1146
 8096SOL    MW432158   5.223   3.558   0.283  0.2054 -0.0449  0.0236
 8097SOL     OW32159   0.077   2.445   4.430  0.0838  0.0436 -0.2093
 8097SOL    HW232160  -0.013   2.477   4.426  0.1014  0.1736  0.3765
 8097SOL    HW332161   0.083   2.399   4.514  0.8052  0.7776  0.1547
 8097SOL    MW432162   0.066   2.443   4.441 -0.1639  0.5311  0.6283
 8098SOL     OW32163   1.477   2.903   1.709 -0.4892 -0.1940  0.5681
 8098SOL    HW232164   1.408   2.968   1.695 -0.8881 -0.9457 -1.1857
 8098SOL    HW332165   1.557   2.955   1.718 -1.0719  0.6204  1.2401
 8098SOL    MW432166   1.479   2.919   1.708  0.2420 -0.1022  0.1756
 8099SOL     OW32167   2.850   1.220   4.188 -0.7857 -0.2565  0.6668
 8099SOL    HW232168   2.873   1.136   4.227 -1.1209 -0.0767  1.2582
 8099SOL    HW332169   2.933   1.269   4.185 -0.5865 -0.6076  0.3016
 8099SOL    MW432170   2.864   1.216   4.193 -0.0470 -0.0875  0.5380
 8100SOL     OW32171   4.425   2.438   4.975  0.4185 -0.1831 -0.0370
 8100SOL    HW232172   4.387   2.352   4.961  0.5747 -0.0875 -1.2084
 8100SOL    HW332173   4.504   2.422   5.026  0.1194 -0.6589  0.2832
 8100SOL    MW432174   4.431   2.425   4.980 -0.7004 -0.4063 -0.1116
 8101SOL     OW32175   2.309   2.922   3.753  0.2264 -0.2066  0.0272
 8101SOL    HW232176   2.329   2.829   3.761 -1.6920 -0.5176  2.4044
 8101SOL    HW332177   2.344   2.961   3.833 -2.8115  0.2313  1.3042
 8101SOL    MW432178   2.316   2.915   3.764 -0.5697  0.1296 -0.1938
 8102SOL     OW32179   5.237   2.017   1.044 -0.3593 -0.1814 -0.1564
 8102SOL    HW232180   5.242   2.034   0.950 -1.4110 -2.6418 -0.7406
 8102SOL    HW332181   5.198   2.097   1.081  1.7386  1.5647 -1.4653
 8102SOL    MW432182   5.232   2.030   1.037 -0.1205 -0.2989  0.1536
 8103SOL     OW32183   0.419   4.103   2.124  0.0288  0.0185 -0.1001
 8103SOL    HW232184   0.362   4.027   2.108 -1.1565  1.1415 -1.4562
 8103SOL    HW332185   0.364   4.165   2.172  0.5150  0.6295 -0.3179
 8103SOL    MW432186   0.404   4.101   2.129  0.1981 -0.3340  0.2946
 8104SOL     OW32187   5.662   0.868   2.602 -0.5268  0.5298 -0.0855
 8104SOL    HW232188   5.685   0.815   2.526 -0.2054 -0.5391  0.7264
 8104SOL    HW332189   5.728   0.938   2.604  0.0412  0.0041 -0.2467
 8104SOL    MW432190   5.674   0.870   2.592 -0.4124  0.9579  0.3414
 8105SOL     OW32191   5.526   3.241   1.654 -0.2311 -0.3600  0.3808
 8105SOL    HW232192   5.598   3.298   1.682 -0.2661  1.0882 -2.2046
 8105SOL    HW332193   5.569   3.164   1.617 -0.1357 -1.0233  1.8084
 8105SOL    MW432194   5.541   3.239   1.653  0.4155 -0.6537 -0.7814
 8106SOL     OW32195   3.976   1.234   6.029  0.0528  0.5738  0.2597
 8106SOL    HW232196   3.986   1.140   6.012  0.6802  1.0892 -2.6207
 8106SOL    HW332197   4.059   1.260   6.070  0.8120  0.2691 -1.0443
 8106SOL    MW432198   3.988   1.225   6.032 -0.6662 -0.7626  0.5039
 8107SOL     OW32199   4.412   1.712   3.821  0.4529  0.3717 -0.2465
 8107SOL    HW232200   4.452   1.792   3.788 -1.1657  1.5973  0.5854
 8107SOL    HW332201   4.333   1.701   3.768  1.1147 -1.2173 -0.9574
 8107SOL    MW432202   4.407   1.721   3.810  0.3663 -0.3096 -0.1383
 8108SOL     OW32203   2.686   2.574   3.503  0.5054 -0.1298  0.0346
 8108SOL    HW232204   2.667   2.592   3.594  1.6363 -0.0694  0.2792
 8108SOL    HW332205   2.601   2.560   3.462  0.0206 -0.6523  1.1958
 8108SOL    MW432206   2.672   2.575   3.509 -0.8281 -0.4680  0.0116
 8109SOL     OW32207   0.937   1.907   6.429 -0.1824  0.4817  0.0327
 8109SOL    HW232208   1.008   1.954   6.473  0.6448 -1.1860  0.5812
 8109SOL    HW332209   0.869   1.899   6.495  0.0912  0.0648  0.2738
 8109SOL    MW432210   0.938   1.912   6.444 -0.3345 -0.5177 -0.3207
 8110SOL     OW32211   6.355   4.658   2.338 -0.3439  0.2403 -0.1800
 8110SOL    HW232212   6.416   4.587   2.318 -0.3670 -0.7772  2.8538
 8110SOL    HW332213   6.342   4.703   2.254  3.9604  0.1129 -1.1317
 8110SOL    MW432214   6.361   4.655   2.324 -0.7184 -0.1138 -0.1361
 8111SOL     OW32215   2.386   2.515   2.634  0.1337 -0.1047 -0.0619
 8111SOL    HW232216   2.441   2.460   2.688 -0.2995  0.9607  1.5340
 8111SOL    HW332217   2.341   2.572   2.696 -0.1964  1.3418 -1.5646
 8111SOL    MW432218   2.387   2.515   2.649 -0.0502 -0.2393 -0.7453
 8112SOL     OW32219   2.998   3.830   3.033  0.1117 -0.4184 -0.6002
 8112SOL    HW232220   3.074   3.888   3.024 -0.2193  0.4219  1.3581
 8112SOL    HW332221   2.930   3.886   3.072 -0.9741 -1.5630 -0.7923
 8112SOL    MW432222   2.999   3.845   3.037  0.3673 -0.1778 -0.0209
 8113SOL     OW32223   6.322   1.265   0.576 -0.2383  0.3555 -0.1962
 8113SOL    HW232224   6.388   1.253   0.644 -1.1211 -0.4705  0.5468
 8113SOL    HW332225   6.326   1.358   0.555 -0.1859  0.7109  1.2579
 8113SOL    MW432226   6.331   1.275   0.582  0.0986 -0.2188 -0.2528
 8114SOL     OW32227   4.936   5.459   6.088 -0.7637  0.1025 -1.1203
 8114SOL    HW232228   4.924   5.408   6.169  0.6485 -1.3916 -1.7858
 8114SOL    HW332229   4.991   5.403   6.033  0.1140  1.9956 -2.2738
 8114SOL    MW432230   4.942   5.444   6.092 -0.0453  0.7074 -0.2464
 8115SOL     OW32231   5.760   3.663   4.214  0.0667  0.1440  0.3805
 8115SOL    HW232232   5.698   3.596   4.244 -0.9975  0.7948 -0.2892
 8115SOL    HW332233   5.704   3.732   4.177  1.2434  0.0254 -1.7661
 8115SOL    MW432234   5.744   3.664   4.213  0.3818 -0.0136  1.1600
 8116SOL     OW32235   1.147   5.099   3.476 -0.0006  0.5460 -0.5204
 8116SOL    HW232236   1.131   5.141   3.391  1.3521 -0.2393 -1.2038
 8116SOL    HW332237   1.237   5.125   3.499 -1.0000  2.3702  1.6834
 8116SOL    MW432238   1.157   5.108   3.468  0.1384  0.6563  0.3646
 8117SOL     OW32239   4.488   5.175   5.785 -0.2615 -0.3442 -0.0625
 8117SOL    HW232240   4.443   5.230   5.849  0.9136 -2.6105  2.9352
 8117SOL    HW332241   4.419   5.148   5.725 -1.9599  0.0129  1.6256
 8117SOL    MW432242   4.473   5.179   5.785  0.4682  0.4013  0.0990
 8118SOL     OW32243   4.197   2.114   1.888 -0.1109 -0.1412 -0.5231
 8118SOL    HW232244   4.118   2.060   1.890 -0.0763 -0.1736  1.2831
 8118SOL    HW332245   4.174   2.191   1.939  1.0204 -0.1730  0.0600
 8118SOL    MW432246   4.183   2.117   1.895 -0.3260 -0.2473  0.5270
 8119SOL     OW32247   1.516   5.743   3.371 -0.6903  0.1215 -0.2891
 8119SOL    HW232248   1.437   5.792   3.392  0.1457  1.9539 -1.1711
 8119SOL    HW332249   1.561   5.797   3.305  3.0547  1.0556  2.6584
 8119SOL    MW432250   1.512   5.757   3.365 -0.2296 -0.3193 -0.1091
 8120SOL     OW32251   5.031   1.284   5.149 -0.5346  0.2887 -0.2627
 8120SOL    HW232252   4.978   1.222   5.099  0.9199 -1.2997  0.0879
 8120SOL    HW332253   5.105   1.233   5.180  0.2886  2.0233  0.7716
 8120SOL    MW432254   5.034   1.269   5.146 -0.4073  0.3776  0.2893
 8121SOL     OW32255   1.180   5.142   1.825  0.0957  0.1454  0.0363
 8121SOL    HW232256   1.139   5.226   1.847  2.3446  1.4731 -0.4834
 8121SOL    HW332257   1.221   5.158   1.740  1.1915 -1.2483  0.2728
 8121SOL    MW432258   1.180   5.155   1.816 -1.0874 -0.1868 -0.5105
 8122SOL     OW32259   1.193   3.929   1.966 -0.2673  0.0070  0.1578
 8122SOL    HW232260   1.243   3.923   1.884 -0.0869 -0.4631  0.2953
 8122SOL    HW332261   1.115   3.875   1.950 -1.6600  2.1501 -0.6898
 8122SOL    MW432262   1.189   3.921   1.953 -0.5223 -0.3618 -0.8832
 8123SOL     OW32263   4.828   3.387   0.878 -0.2408  0.2056  0.7922
 8123SOL    HW232264   4.779   3.417   0.955  0.3280  2.0351  0.4740
 8123SOL    HW332265   4.897   3.332   0.915 -0.3120  0.6013  1.5444
 8123SOL    MW432266   4.830   3.383   0.893  0.0320  0.0146 -0.2897
 8124SOL     OW32267   0.746   2.367   3.865 -0.5138  0.3004 -0.0228
 8124SOL    HW232268   0.735   2.444   3.921 -0.0522  0.0927  0.3610
 8124SOL    HW332269   0.805   2.310   3.914 -1.4885 -0.6616  0.0601
 8124SOL    MW432270   0.753   2.370   3.879 -0.1423  0.4067 -0.3197
 8125SOL     OW32271   1.679   5.042   5.333 -0.1858 -0.0853 -0.0976
 8125SOL    HW232272   1.678   5.036   5.238  1.7136  5.1033 -0.8004
 8125SOL    HW332273   1.757   4.993   5.360  1.5198  1.5106 -1.8213
 8125SOL    MW432274   1.689   5.035   5.324  0.1502 -0.0550 -0.2675
 8126SOL     OW32275   5.314   0.404   4.307  0.0299 -0.2188 -0.4816
 8126SOL    HW232276   5.404   0.374   4.322  0.4476  0.7177 -1.0343
 8126SOL    HW332277   5.260   0.332   4.339  0.9859 -1.4166 -1.4345
 8126SOL    MW432278   5.319   0.391   4.314  0.3374  0.3954 -0.3350
 8127SOL     OW32279   5.058   4.676   0.197  0.3063  0.1007  0.1851
 8127SOL    HW232280   5.106   4.731   0.135  1.2196 -0.8791 -0.0140
 8127SOL    HW332281   5.124   4.648   0.260 -0.5200  0.7146  1.3653
 8127SOL    MW432282   5.073   4.679   0.197 -0.0885 -0.3472 -0.0383
 8128SOL     OW32283   2.613   4.098   2.209  0.1944 -1.2259  0.2604
 8128SOL    HW232284   2.519   4.082   2.197  0.8500 -5.1784 -0.9419
 8128SOL    HW332285   2.634   4.168   2.147 -2.2023  1.4098  2.1377
 8128SOL    MW432286   2.603   4.105   2.199 -0.0975  0.6978 -0.2452
 8129SOL     OW32287   4.471   2.824   4.089  0.0384  0.6706  0.2004
 8129SOL    HW232288   4.387   2.811   4.133 -0.0225  1.4366  0.3062
 8129SOL    HW332289   4.472   2.756   4.021 -0.0684 -0.2143  1.0527
 8129SOL    MW432290   4.460   2.813   4.086 -0.2660  0.1837  0.7936
 8130SOL     OW32291   1.803   3.940   2.163  0.0859 -0.1208  0.1205
 8130SOL    HW232292   1.735   3.907   2.104 -0.8279  0.3296  0.8984
 8130SOL    HW332293   1.791   4.035   2.163 -0.8052 -0.1956  2.0464
 8130SOL    MW432294   1.792   3.948   2.155 -0.4666  0.2522 -0.4071
 8131SOL     OW32295   4.115   0.915   0.327  0.1748 -0.0350 -0.4877
 8131SOL    HW232296   4.164   0.970   0.265  2.4800 -0.5774  0.7474
 8131SOL    HW332297   4.113   0.829   0.287 -0.0620  0.0517 -0.6689
 8131SOL    MW432298   4.121   0.911   0.314  0.6472 -0.4812 -0.6871
 8132SOL     OW32299   5.118   2.913   0.903 -0.4273  0.5635 -0.1640
 8132SOL    HW232300   5.190   2.861   0.868 -1.9285 -1.3669 -0.5693
 8132SOL    HW332301   5.148   2.939   0.990 -0.1939 -2.5110  0.8217
 8132SOL    MW432302   5.132   2.909   0.910  0.1766 -0.0621 -0.5310
 8133SOL     OW32303   2.154   4.349   0.239  0.0777  0.1315 -0.1139
 8133SOL    HW232304   2.195   4.377   0.157  1.2958 -1.2646 -0.0181
 8133SOL    HW332305   2.191   4.407   0.305  2.1020 -1.1987 -0.0060
 8133SOL    MW432306   2.164   4.360   0.237 -0.3642  0.4576 -0.0039
 8134SOL     OW32307   2.964   3.600   2.651  0.4170  0.8196  0.3478
 8134SOL    HW232308   3.034   3.584   2.714 -0.0458  1.9337  1.1722
 8134SOL    HW332309   2.883   3.581   2.699  0.0757  1.2929 -0.0282
 8134SOL    MW432310   2.962   3.595   2.666  0.2199  0.3799  0.2769
 8135SOL     OW32311   3.106   2.667   4.149 -0.4050 -0.1247 -0.5291
 8135SOL    HW232312   3.135   2.610   4.221 -1.1027 -0.1504 -0.2592
 8135SOL    HW332313   3.149   2.631   4.072  0.2868 -0.1535 -0.1436
 8135SOL    MW432314   3.115   2.655   4.149 -0.3912 -0.4491 -0.3258
 8136SOL     OW32315   2.893   1.146   1.110  0.6287 -0.5698  0.0985
 8136SOL    HW232316   2.888   1.073   1.171 -3.1080 -0.1839  0.4891
 8136SOL    HW332317   2.947   1.211   1.155 -1.8179 -0.3721  3.0622
 8136SOL    MW432318   2.899   1.145   1.124 -0.1327 -0.1319  0.0217
 8137SOL     OW32319   0.973   3.705   3.438 -0.2171  0.6807 -0.6475
 8137SOL    HW232320   0.907   3.696   3.507  0.8824 -3.3879  0.1655
 8137SOL    HW332321   0.933   3.764   3.374 -2.6078  2.1271  1.9397
 8137SOL    MW432322   0.959   3.712   3.438 -0.0402 -0.6956 -0.5639
 8138SOL     OW32323   5.877   2.580   4.112  0.2183  0.1682  0.2748
 8138SOL    HW232324   5.921   2.503   4.077 -0.4570 -0.6629  1.2217
 8138SOL    HW332325   5.897   2.649   4.049 -0.7996 -1.2122 -1.6930
 8138SOL    MW432326   5.885   2.579   4.099  0.0194  0.1130  0.1552
 8139SOL     OW32327   4.756   5.800   6.024  0.2753  0.0057 -0.7648
 8139SOL    HW232328   4.693   5.728   6.024 -0.7738  0.8975 -0.3710
 8139SOL    HW332329   4.838   5.760   5.999 -0.3064 -1.3199 -0.6176
 8139SOL    MW432330   4.758   5.785   6.021  0.3464 -0.4102  0.0753
 8140SOL     OW32331   3.317   2.882   6.277  0.3577  0.1265  0.4943
 8140SOL    HW232332   3.315   2.796   6.317 -0.6683 -0.3370 -0.5005
 8140SOL    HW332333   3.380   2.874   6.206 -0.3264 -0.0649 -0.1089
 8140SOL    MW432334   3.325   2.870   6.273 -0.1878  0.1168 -0.1475
 8141SOL     OW32335   1.936   5.983   5.038  0.0516 -0.7300 -0.1760
 8141SOL    HW232336   1.966   6.071   5.061  0.9501 -1.1587  0.3605
 8141SOL    HW332337   1.889   5.952   5.116 -0.9667 -0.4354 -0.6558
 8141SOL    MW432338   1.934   5.990   5.052 -0.1547 -0.6469 -0.0098
 8142SOL     OW32339   1.391   5.238   6.203  0.2311  0.1460  0.1637
 8142SOL    HW232340   1.425   5.323   6.174 -0.4463  0.1636 -0.6220
 8142SOL    HW332341   1.337   5.259   6.280  2.4004  0.0438  1.8178
 8142SOL    MW432342   1.389   5.252   6.210 -0.0270  0.3265 -0.1790
 8143SOL     OW32343   3.715   4.073   2.121  0.3725 -0.0803  0.2336
 8143SOL    HW232344   3.790   4.052   2.065  1.1265 -0.2461  1.2828
 8143SOL    HW332345   3.650   4.109   2.061  0.1738 -2.5512 -1.1752
 8143SOL    MW432346   3.716   4.075   2.106 -0.3954 -0.0695 -0.0590
 8144SOL     OW32347   6.324   0.306   0.017  0.0691  0.6138  0.3596
 8144SOL    HW232348   6.306   0.290   0.110  0.9352  0.6660  0.5471
 8144SOL    HW332349   6.292   0.395   0.002  1.0284  1.0762  0.9294
 8144SOL    MW432350   6.318   0.316   0.028  0.2304 -0.3802 -0.3884
 8145SOL     OW32351   4.688   2.561   1.851 -0.0293 -0.0419 -0.2080
 8145SOL    HW232352   4.622   2.562   1.782 -1.4515  0.1686  1.0887
 8145SOL    HW332353   4.683   2.472   1.887  0.3820 -0.0176 -0.0917
 8145SOL    MW432354   4.678   2.549   1.847 -0.6570 -0.6345 -0.0308
 8146SOL     OW32355   5.362   1.358   5.455  0.2400 -0.0941 -0.1813
 8146SOL    HW232356   5.383   1.432   5.399 -0.6155  0.2073 -0.1250
 8146SOL    HW332357   5.266   1.355   5.456  0.2382 -0.2453  1.0491
 8146SOL    MW432358   5.352   1.368   5.448  0.2782  0.4629  0.3972
 8147SOL     OW32359   5.936   3.209   6.339  0.1433  0.3574  0.1005
 8147SOL    HW232360   5.970   3.137   6.286  2.3313  0.5131  1.2069
 8147SOL    HW332361   5.881   3.259   6.278  0.4379 -0.9407 -1.2949
 8147SOL    MW432362   5.933   3.206   6.324  0.1458  0.7127  0.2337
 8148SOL     OW32363   2.735   4.953   0.342 -0.2769 -0.6429 -0.0896
 8148SOL    HW232364   2.765   5.033   0.299 -1.4706 -0.5186 -0.7359
 8148SOL    HW332365   2.812   4.896   0.344  0.4748  0.3579  0.0034
 8148SOL    MW432366   2.749   4.956   0.337  0.2188 -0.2701  0.7523
 8149SOL     OW32367   6.194   4.666   1.493  0.2142  0.2774  0.0737
 8149SOL    HW232368   6.186   4.749   1.540  0.6531 -0.1488  0.9106
 8149SOL    HW332369   6.103   4.640   1.475  0.0087  0.1218  1.2749
 8149SOL    MW432370   6.181   4.673   1.497 -0.1243 -0.1797  0.2091
 8150SOL     OW32371   2.260   0.721   2.372  0.0592 -0.5698 -0.0129
 8150SOL    HW232372   2.179   0.712   2.322  1.0342 -1.0143 -1.5959
 8150SOL    HW332373   2.307   0.639   2.355  1.3423  0.1557 -0.1033
 8150SOL    MW432374   2.255   0.709   2.363  0.1891 -0.1274 -0.2707
 8151SOL     OW32375   4.383   3.748   2.507  0.5596 -0.2120 -0.0627
 8151SOL    HW232376   4.425   3.664   2.524  0.4925 -0.1777  0.2927
 8151SOL    HW332377   4.325   3.731   2.432  0.0166 -0.6721  0.4446
 8151SOL    MW432378   4.381   3.734   2.500 -0.6720  0.2237  0.2721
 8152SOL     OW32379   3.339   2.993   2.089 -0.1097  0.0539 -0.2262
 8152SOL    HW232380   3.330   3.043   2.008 -0.2201 -0.2065 -0.3762
 8152SOL    HW332381   3.369   3.057   2.154 -3.6535  1.2000  0.5099
 8152SOL    MW432382   3.342   3.008   2.087 -0.5532  0.1507 -0.6544
 8153SOL     OW32383   2.731   5.560   5.244  0.2163  0.3261 -0.1026
 8153SOL    HW232384   2.664   5.626   5.225  0.9020  1.0006 -0.2322
 8153SOL    HW332385   2.696   5.510   5.317  0.1362  1.4935  0.6745
 8153SOL    MW432386   2.717   5.562   5.251  0.0094  0.4681 -0.2925
 8154SOL     OW32387   5.266   3.816   0.436 -0.8668  0.3415 -0.3082
 8154SOL    HW232388   5.222   3.745   0.388 -0.5427 -1.6922  2.1767
 8154SOL    HW332389   5.227   3.813   0.523  0.9467  1.5513  0.6042
 8154SOL    MW432390   5.255   3.806   0.441  0.2214 -0.2684 -0.1265
 8155SOL     OW32391   2.051   5.959   1.525 -0.2284 -0.0804 -0.0185
 8155SOL    HW232392   2.056   5.979   1.431 -0.7797 -0.5357 -0.1484
 8155SOL    HW332393   2.027   5.867   1.529  0.2425 -0.1803  0.5755
 8155SOL    MW432394   2.048   5.950   1.513  0.3699 -0.6041 -0.3416
 8156SOL     OW32395   4.545   3.566   1.414 -0.1596 -0.2937  0.2849
 8156SOL    HW232396   4.595   3.584   1.494  1.6228  0.7977 -1.0205
 8156SOL    HW332397   4.586   3.619   1.347 -2.4157 -0.2219 -1.1371
 8156SOL    MW432398   4.557   3.575   1.416 -0.1155  0.7068  0.1705
 8157SOL     OW32399   3.028   1.004   2.166 -0.5370  0.3768 -0.1459
 8157SOL    HW232400   2.978   0.989   2.245 -0.7505 -0.4549 -0.4344
 8157SOL    HW332401   3.012   1.097   2.145  0.2187  0.8413  1.2451
 8157SOL    MW432402   3.019   1.014   2.173  0.0753  0.6071  0.7629
 8158SOL     OW32403   0.626   3.629   2.954  0.3631 -0.1796  0.2520
 8158SOL    HW232404   0.544   3.596   2.916 -0.3446  0.2316  1.3633
 8158SOL    HW332405   0.600   3.707   3.003  1.5036  0.2309  0.2387
 8158SOL    MW432406   0.612   3.635   2.956 -0.0238  0.0359 -0.7267
 8159SOL     OW32407   3.153   5.359   5.616  0.6625 -0.0134  0.1078
 8159SOL    HW232408   3.120   5.342   5.704  0.3109 -0.4366 -0.0960
 8159SOL    HW332409   3.074   5.373   5.564  0.7841 -1.0083 -0.3820
 8159SOL    MW432410   3.138   5.358   5.621  0.4837  0.4292  0.7296
 8160SOL     OW32411   3.192   2.172   5.129 -0.0351 -0.3276 -0.3458
 8160SOL    HW232412   3.212   2.090   5.175 -0.2945 -1.1298 -1.5951
 8160SOL    HW332413   3.247   2.169   5.051 -1.2037 -0.0928 -1.2099
 8160SOL    MW432414   3.202   2.160   5.124 -0.5311  0.4246 -0.7683
 8161SOL     OW32415   5.491   2.136   5.942 -0.1105 -0.0180  0.0062
 8161SOL    HW232416   5.488   2.229   5.965  0.0701  0.2163 -0.8723
 8161SOL    HW332417   5.420   2.096   5.993 -0.4398  0.6723  0.0971
 8161SOL    MW432418   5.481   2.143   5.952  0.2671 -0.4015  0.3717
 8162SOL     OW32419   0.295   6.071   5.466  0.2910 -0.5120 -0.0588
 8162SOL    HW232420   0.330   6.015   5.535 -0.3452  0.7985  1.3705
 8162SOL    HW332421   0.372   6.117   5.431  0.4677 -0.2869  0.6133
 8162SOL    MW432422   0.310   6.070   5.470 -0.2822 -0.0289 -0.3469
 8163SOL     OW32423   5.155   2.780   0.551  0.5024 -0.6890  0.3427
 8163SOL    HW232424   5.175   2.835   0.476 -1.0068 -0.1989  0.2770
 8163SOL    HW332425   5.061   2.793   0.567  0.3531 -2.3737  1.0308
 8163SOL    MW432426   5.145   2.789   0.543  0.6143 -0.9624 -0.3879
 8164SOL     OW32427   0.496   5.114   4.696  0.1873  0.1999 -0.0620
 8164SOL    HW232428   0.462   5.026   4.683  0.8269  0.1676 -1.7846
 8164SOL    HW332429   0.583   5.101   4.733  0.5217  0.0696 -0.8762
 8164SOL    MW432430   0.503   5.101   4.699 -0.0469  0.1724 -0.2106
 8165SOL     OW32431   4.952   0.454   0.383  0.4226  0.0056  0.7003
 8165SOL    HW232432   4.908   0.407   0.454 -0.6787 -0.1763 -0.0724
 8165SOL    HW332433   5.045   0.435   0.395 -0.0255 -3.4727 -0.3284
 8165SOL    MW432434   4.959   0.445   0.394  0.5961  0.2326 -0.4405
 8166SOL     OW32435   3.687   5.311   0.530  0.4416 -0.1348  0.4010
 8166SOL    HW232436   3.679   5.216   0.538 -0.9064 -0.1377 -0.8018
 8166SOL    HW332437   3.775   5.329   0.564  1.8571 -2.1317 -1.8384
 8166SOL    MW432438   3.698   5.301   0.536 -0.2038 -0.4705  0.8891
 8167SOL     OW32439   3.340   5.170   1.619 -0.7128 -0.1441 -0.3133
 8167SOL    HW232440   3.434   5.156   1.631 -0.5086  1.4240  0.1628
 8167SOL    HW332441   3.326   5.152   1.526 -0.4091 -2.6502  0.0805
 8167SOL    MW432442   3.351   5.166   1.608  0.1494  0.5672  0.1249
 8168SOL     OW32443   4.978   2.689   2.075  0.3291  0.2386 -0.3041
 8168SOL    HW232444   5.031   2.646   2.008  1.0957 -0.6986  0.8662
 8168SOL    HW332445   4.927   2.618   2.115 -0.0474  0.7693  0.1824
 8168SOL    MW432446   4.978   2.674   2.071  0.0917  0.0474  0.3871
 8169SOL     OW32447   5.883   0.349   0.155 -0.3834 -0.2788  0.0376
 8169SOL    HW232448   5.929   0.432   0.173 -1.0568  0.3780 -1.1536
 8169SOL    HW332449   5.837   0.330   0.237  1.4622 -0.6242  1.0494
 8169SOL    MW432450   5.883   0.358   0.168 -0.0112 -0.3223  0.3888
 8170SOL     OW32451   4.626   4.191   4.238 -0.3282 -0.5565  0.5499
 8170SOL    HW232452   4.573   4.112   4.253  0.0111 -0.8503  0.2375
 8170SOL    HW332453   4.666   4.210   4.322  0.0020 -1.0279  0.5030
 8170SOL    MW432454   4.624   4.183   4.251  0.3179 -0.6750 -0.0862
 8171SOL     OW32455   3.426   5.457   4.671 -0.3129 -0.2146  0.0888
 8171SOL    HW232456   3.442   5.434   4.762 -0.7578  0.1970  0.2787
 8171SOL    HW332457   3.368   5.388   4.638 -0.3373 -0.2396  0.1851
 8171SOL    MW432458   3.421   5.445   4.679  0.2595  0.1939 -0.1355
 8172SOL     OW32459   4.968   4.700   0.806 -0.3778 -0.3774  0.0608
 8172SOL    HW232460   4.971   4.626   0.866 -1.9395  0.5419  1.3373
 8172SOL    HW332461   4.986   4.777   0.860  1.0415  0.2487 -1.2036
 8172SOL    MW432462   4.971   4.701   0.821  0.2589  0.1135 -0.1865
 8173SOL     OW32463   6.372   2.671   1.808 -0.2106  0.1238  0.1107
 8173SOL    HW232464   6.301   2.608   1.798 -0.2251 -0.0709  1.2944
 8173SOL    HW332465   6.450   2.617   1.818 -0.1038  0.3103  0.2911
 8173SOL    MW432466   6.373   2.655   1.808  0.0875 -0.0180 -0.3061
 8174SOL     OW32467   2.196   6.181   4.430  0.4661  0.3327  0.1777
 8174SOL    HW232468   2.159   6.110   4.377 -0.0252  0.6039  0.1515
 8174SOL    HW332469   2.206   6.143   4.518  1.8333 -0.3014 -0.2196
 8174SOL    MW432470   2.193   6.167   4.435  0.2013 -0.3837 -0.5514
 8175SOL     OW32471   2.965   1.980   5.001  0.4939  0.4578  0.2542
 8175SOL    HW232472   2.945   1.924   5.075 -0.0819 -1.1704 -1.0807
 8175SOL    HW332473   2.885   1.982   4.949  0.7208  1.9849 -0.1033
 8175SOL    MW432474   2.952   1.973   5.004  0.1749  0.4819  0.2409
 8176SOL     OW32475   2.335   0.919   1.805 -0.0173  0.0706 -0.1122
 8176SOL    HW232476   2.369   0.840   1.764 -0.0396  0.8866 -1.8019
 8176SOL    HW332477   2.300   0.890   1.890  1.5252 -1.4070  0.0690
 8176SOL    MW432478   2.335   0.905   1.811  0.1556 -0.0444 -0.3327
 8177SOL     OW32479   4.961   3.041   5.841 -0.0020 -0.5530  0.1129
 8177SOL    HW232480   5.002   3.107   5.785 -0.1486 -0.1867  0.4324
 8177SOL    HW332481   4.895   3.001   5.785  0.6695 -1.0340 -0.3527
 8177SOL    MW432482   4.958   3.044   5.826 -0.2497 -0.7923  0.0512
 8178SOL     OW32483   0.138   0.659   2.338  0.1045  0.1792 -0.3835
 8178SOL    HW232484   0.194   0.730   2.367 -0.5516  1.4963 -2.1455
 8178SOL    HW332485   0.052   0.679   2.375  0.0629 -0.0397 -0.3605
 8178SOL    MW432486   0.134   0.671   2.347  0.5740 -0.1413 -0.4004
 8179SOL     OW32487   5.830   3.054   2.378 -0.0842  0.3298 -0.1351
 8179SOL    HW232488   5.910   3.099   2.353 -0.3849  1.4043  0.7598
 8179SOL    HW332489   5.770   3.124   2.406 -1.0118 -0.5186  0.0804
 8179SOL    MW432490   5.832   3.069   2.379  0.0980  0.0638  0.6648
 8180SOL     OW32491   0.810   4.051   2.811  0.0144  0.6483  0.2570
 8180SOL    HW232492   0.872   4.038   2.740  0.0962 -1.3933  0.6508
 8180SOL    HW332493   0.864   4.058   2.890 -0.1171  2.2047  0.2491
 8180SOL    MW432494   0.825   4.051   2.812  0.6892 -0.0715  0.1799
 8181SOL     OW32495   2.125   4.699   0.148 -0.0357 -0.1581  0.2054
 8181SOL    HW232496   2.174   4.670   0.226  0.4681  0.4027  0.1007
 8181SOL    HW332497   2.040   4.726   0.182  0.8280  1.9337  0.8704
 8181SOL    MW432498   2.121   4.699   0.163  0.3763  0.5381  0.6687
 8182SOL     OW32499   2.211   0.583   5.613 -0.2753  0.1185  0.2017
 8182SOL    HW232500   2.170   0.621   5.691 -0.2331 -1.0633  0.8251
 8182SOL    HW332501   2.147   0.518   5.582 -0.4468  0.8233 -0.9691
 8182SOL    MW432502   2.197   0.579   5.619  0.5620 -0.1478 -0.0004
 8183SOL     OW32503   2.945   0.910   1.248 -0.4611  0.4028  0.0779
 8183SOL    HW232504   3.029   0.895   1.292 -0.7539 -0.2349  0.4407
 8183SOL    HW332505   2.940   0.841   1.182 -1.1087 -0.1480  0.6823
 8183SOL    MW432506   2.955   0.899   1.245 -0.7799 -0.0378  0.1156
 8184SOL     OW32507   5.481   0.008   3.812  0.0021 -0.8734  0.2616
 8184SOL    HW232508   5.416   0.018   3.883  0.3261  0.7179  0.3691
 8184SOL    HW332509   5.564  -0.004   3.858  0.2412  0.3488  0.1830
 8184SOL    MW432510   5.483   0.008   3.828  0.0029 -0.1296  0.2446
 8185SOL     OW32511   3.573   0.092   0.354  0.5463 -0.2643 -0.9107
 8185SOL    HW232512   3.512   0.158   0.320  1.0247  0.7818  0.1725
 8185SOL    HW332513   3.659   0.119   0.320  0.6286 -0.8273 -1.1560
 8185SOL    MW432514   3.576   0.104   0.345  0.2622 -0.1120 -0.8190
 8186SOL     OW32515   0.224   4.674   2.371 -0.9029  0.4356 -0.3421
 8186SOL    HW232516   0.202   4.632   2.454  1.1449 -0.1148 -0.0157
 8186SOL    HW332517   0.243   4.764   2.395  1.2201 -0.0703  0.1347
 8186SOL    MW432518   0.223   4.680   2.385  0.0274  0.3704 -0.5032
 8187SOL     OW32519   2.614   1.566   1.652  0.2495 -0.2323 -0.1711
 8187SOL    HW232520   2.602   1.471   1.648 -1.1680 -0.1903  1.9061
 8187SOL    HW332521   2.708   1.577   1.666  0.2361 -1.4274  1.0960
 8187SOL    MW432522   2.625   1.555   1.653  0.6076  0.2744  0.2483
 8188SOL     OW32523   4.328   2.399   3.238  0.1847  0.2867 -0.2244
 8188SOL    HW232524   4.418   2.368   3.236  0.0624 -0.1180 -2.2693
 8188SOL    HW332525   4.303   2.396   3.330  0.5238 -4.7243 -0.0420
 8188SOL    MW432526   4.337   2.395   3.250  0.1649  0.4244  0.5215
 8189SOL     OW32527   1.733   0.880   4.735  0.3380  0.6284 -0.0070
 8189SOL    HW232528   1.816   0.833   4.735  0.7790  1.3756  0.6316
 8189SOL    HW332529   1.736   0.934   4.657  0.6390  0.9611  0.2321
 8189SOL    MW432530   1.745   0.881   4.725  0.3260 -0.1980  0.1682
 8190SOL     OW32531   0.451   4.469   1.948  0.4118  0.2861 -0.0247
 8190SOL    HW232532   0.461   4.494   2.040 -2.6788 -0.1060  0.5113
 8190SOL    HW332533   0.461   4.551   1.900 -3.5916  1.6993  1.2184
 8190SOL    MW432534   0.454   4.483   1.954  0.3192  0.6955  0.4837
 8191SOL     OW32535   0.945   1.604   0.298 -0.0961  0.5556 -0.3482
 8191SOL    HW232536   0.890   1.627   0.373 -0.7621  0.5187 -0.8146
 8191SOL    HW332537   0.978   1.517   0.317 -0.3179  0.5197 -0.1309
 8191SOL    MW432538   0.942   1.596   0.310 -0.7931 -0.2468 -0.0900
 8192SOL     OW32539   5.675   4.599   3.450  0.0965  0.0126  0.5069
 8192SOL    HW232540   5.583   4.625   3.457  0.7807  3.3944 -0.8819
 8192SOL    HW332541   5.708   4.603   3.541 -0.8286  0.1629  0.8433
 8192SOL    MW432542   5.668   4.603   3.463  0.2921 -0.1839  0.2332
 8193SOL     OW32543   5.377   4.437   3.678  0.0355  0.6695  0.6726
 8193SOL    HW232544   5.391   4.510   3.617  1.0766  0.2194  0.3421
 8193SOL    HW332545   5.353   4.363   3.622  2.1394 -0.0527  0.6412
 8193SOL    MW432546   5.376   4.437   3.662  0.0109  0.1124  0.0680
 8194SOL     OW32547   5.647   3.620   6.239  0.3322  0.0569  0.6136
 8194SOL    HW232548   5.602   3.653   6.317  0.2839  1.7004 -0.0660
 8194SOL    HW332549   5.730   3.586   6.272 -0.3139 -0.6378  1.5592
 8194SOL    MW432550   5.652   3.620   6.253 -0.0761 -0.2649  0.4875
 8195SOL     OW32551   3.379   2.268   2.945  0.2875  0.2127  0.0161
 8195SOL    HW232552   3.443   2.308   3.005 -0.1792 -0.3689  0.9308
 8195SOL    HW332553   3.319   2.339   2.923  0.4364  0.4204  0.2750
 8195SOL    MW432554   3.380   2.283   2.950  0.3718  0.2381  0.1705
 8196SOL     OW32555   4.622   2.921   2.201 -0.5053 -0.7338 -0.0674
 8196SOL    HW232556   4.575   2.977   2.139 -0.6714  0.0481  0.7479
 8196SOL    HW332557   4.620   2.834   2.161 -1.2271 -0.3853 -0.8137
 8196SOL    MW432558   4.616   2.917   2.188  0.3732 -0.1506  0.4444
 8197SOL     OW32559   1.682   5.009   4.520 -0.5113  0.2370 -0.8695
 8197SOL    HW232560   1.651   4.957   4.446 -0.6661  0.2110 -0.7866
 8197SOL    HW332561   1.765   5.047   4.490 -0.6059  0.2784 -1.0781
 8197SOL    MW432562   1.689   5.007   4.506  0.7104 -0.3999 -0.2646
 8198SOL     OW32563   2.628   3.175   0.050  0.0445 -0.0017  0.5975
 8198SOL    HW232564   2.644   3.086   0.018  1.9372  0.0624  1.2091
 8198SOL    HW332565   2.667   3.176   0.137  1.4715  1.8426  0.0015
 8198SOL    MW432566   2.636   3.163   0.057  0.3077 -0.3463 -0.4682
 8199SOL     OW32567   3.999   3.259   1.295 -0.2716 -0.5652 -0.2554
 8199SOL    HW232568   3.909   3.280   1.269  0.4774  1.0617 -1.7458
 8199SOL    HW332569   4.044   3.343   1.297  1.1352 -1.2896  0.9524
 8199SOL    MW432570   3.993   3.273   1.292 -0.6407  0.3805  0.6862
 8200SOL     OW32571   1.466   6.258   2.046  0.3982  0.2933  0.6865
 8200SOL    HW232572   1.403   6.284   2.114 -1.1279  2.4208 -1.3816
 8200SOL    HW332573   1.431   6.176   2.012 -0.0214  0.3129  1.0507
 8200SOL    MW432574   1.453   6.251   2.051 -0.4494  0.1801  0.3625
 8201SOL     OW32575   3.626   0.047   4.872 -1.1639  0.3302 -0.2040
 8201SOL    HW232576   3.563  -0.005   4.823 -1.6971  0.7153  0.0629
 8201SOL    HW332577   3.577   0.125   4.898 -0.5522  0.6726 -0.0666
 8201SOL    MW432578   3.611   0.051   4.869  0.2182 -0.3626  0.0509
 8202SOL     OW32579   1.501   4.498   0.848 -0.0123  0.3884 -0.2531
 8202SOL    HW232580   1.439   4.478   0.918 -1.2739 -0.1582 -1.4821
 8202SOL    HW332581   1.504   4.419   0.795  0.7797  0.8541 -0.9364
 8202SOL    MW432582   1.493   4.485   0.851  0.1275  0.1217  0.1503
 8203SOL     OW32583   1.481   4.031   5.706  0.3249  0.4130  0.4501
 8203SOL    HW232584   1.574   4.024   5.683  0.3748 -0.1854  0.8463
 8203SOL    HW332585   1.478   4.024   5.801  0.0430  2.2424  0.6301
 8203SOL    MW432586   1.493   4.029   5.715  1.0096  0.8170 -0.1843
 8204SOL     OW32587   1.191   2.827   5.769 -0.1939  0.3385  0.5740
 8204SOL    HW232588   1.113   2.863   5.727 -1.3219 -2.0872  0.4084
 8204SOL    HW332589   1.158   2.762   5.830  1.6966 -1.3873 -0.1139
 8204SOL    MW432590   1.177   2.823   5.771  0.3123 -0.3513  0.4320
 8205SOL     OW32591   0.356   3.665   3.631  0.3705 -0.6651 -0.5270
 8205SOL    HW232592   0.323   3.658   3.541 -0.5118 -1.6750 -0.1320
 8205SOL    HW332593   0.287   3.628   3.686  1.7827 -2.0686  0.3999
 8205SOL    MW432594   0.342   3.660   3.626 -0.3115  0.0777 -0.4073
 8206SOL     OW32595   5.136   5.428   4.151  0.4148 -0.2498  0.5768
 8206SOL    HW232596   5.202   5.489   4.119  1.1595 -0.2988  1.9784
 8206SOL    HW332597   5.088   5.477   4.218  1.6287 -1.4413  2.4063
 8206SOL    MW432598   5.138   5.443   4.155 -0.2538  0.5761  0.7662
 8207SOL     OW32599   4.058   6.190   2.168  0.1307  0.0692 -0.3838
 8207SOL    HW232600   4.115   6.206   2.242 -0.5287  2.1382 -0.2662
 8207SOL    HW332601   4.025   6.101   2.181  0.7670  0.0548  1.2620
 8207SOL    MW432602   4.061   6.180   2.179 -0.3955  0.0453  0.3961
 8208SOL     OW32603   6.303   5.551   2.795 -0.2249  0.3354 -0.3852
 8208SOL    HW232604   6.362   5.606   2.743  0.3116  0.6951  0.5673
 8208SOL    HW332605   6.255   5.614   2.850 -2.5427  0.1994 -2.0871
 8208SOL    MW432606   6.304   5.567   2.795  0.2785 -0.7202 -0.2033
 8209SOL     OW32607   1.880   2.901   5.331 -0.1608 -0.1783 -0.1477
 8209SOL    HW232608   1.833   2.982   5.350 -0.0532 -0.2914  0.6377
 8209SOL    HW332609   1.812   2.833   5.330 -0.1435 -0.1987  0.0214
 8209SOL    MW432610   1.865   2.903   5.333 -0.5706 -0.0719  0.3181
 8210SOL     OW32611   4.814   5.700   2.174  0.2284 -0.2781  0.4755
 8210SOL    HW232612   4.734   5.752   2.169  0.1518 -0.4870 -1.2862
 8210SOL    HW332613   4.877   5.756   2.218  0.1939  1.4209 -1.4818
 8210SOL    MW432614   4.811   5.714   2.179 -0.3733  0.4901  0.1446
 8211SOL     OW32615   1.814   2.937   4.680 -0.0934  0.2666 -0.2807
 8211SOL    HW232616   1.860   2.915   4.760 -0.4901  0.7633  0.0872
 8211SOL    HW332617   1.867   2.897   4.610  1.3655  1.5412  0.0492
 8211SOL    MW432618   1.827   2.928   4.681  0.7028  0.4596  0.4856
 8212SOL     OW32619   1.489   0.087   4.775  0.2977 -0.6958  0.4109
 8212SOL    HW232620   1.582   0.073   4.794 -0.0759 -1.3217  1.9032
 8212SOL    HW332621   1.475   0.179   4.795  1.1355  0.1497 -2.3879
 8212SOL    MW432622   1.500   0.097   4.780  0.5571  0.0109 -0.7252
 8213SOL     OW32623   2.010   6.347   3.457 -0.0017  0.9599 -0.0574
 8213SOL    HW232624   1.934   6.294   3.431 -0.3331  1.9096 -1.0993
 8213SOL    HW332625   2.068   6.345   3.381  1.2143 -0.0535  0.8631
 8213SOL    MW432626   2.008   6.340   3.444 -0.2649 -0.8727 -0.1881
 8214SOL     OW32627   2.363   3.082   0.099 -0.3514  0.3293 -0.4433
 8214SOL    HW232628   2.385   2.995   0.068  1.3066 -0.2466  2.0089
 8214SOL    HW332629   2.443   3.133   0.085 -0.2817  0.6074  0.8039
 8214SOL    MW432630   2.377   3.078   0.093  0.3978 -0.0852 -0.0029
 8215SOL     OW32631   0.341   3.235   4.124 -0.2565 -0.3865  0.3411
 8215SOL    HW232632   0.421   3.210   4.077 -0.2592 -1.2463  0.7631
 8215SOL    HW332633   0.350   3.329   4.139 -0.0886 -0.1605 -1.0389
 8215SOL    MW432634   0.353   3.244   4.120  0.6718 -0.5465 -0.0792
 8216SOL     OW32635   0.524   2.148   3.641 -0.1065  0.2086 -0.2794
 8216SOL    HW232636   0.618   2.162   3.626 -0.0220  0.7121  0.6635
 8216SOL    HW332637   0.489   2.236   3.655 -0.3387 -0.1346  1.4526
 8216SOL    MW432638   0.532   2.161   3.641 -0.2723  0.3000  0.1067
 8217SOL     OW32639   2.457   1.895   2.235 -0.0356  0.4953  0.0942
 8217SOL    HW232640   2.463   1.963   2.168 -0.0736 -0.5901 -1.0476
 8217SOL    HW332641   2.398   1.830   2.198  0.5692 -0.5139  0.8524
 8217SOL    MW432642   2.450   1.896   2.221 -0.2745 -0.6252  0.1440
 8218SOL     OW32643   4.435   5.950   2.429  0.2684 -0.0846 -0.6241
 8218SOL    HW232644   4.443   6.021   2.365 -1.1889 -1.6145 -2.6340
 8218SOL    HW332645   4.456   5.991   2.513  0.6126  2.4282 -1.8432
 8218SOL    MW432646   4.438   5.965   2.431  0.4282 -0.7658 -0.2989
 8219SOL     OW32647   3.567   1.104   1.992  0.2254 -0.6701 -0.2154
 8219SOL    HW232648   3.652   1.148   1.981 -1.1212  2.0398 -0.7213
 8219SOL    HW332649   3.527   1.109   1.906 -1.1956 -0.1403  0.4498
 8219SOL    MW432650   3.573   1.111   1.980  0.9088  0.8437  0.5349
 8220SOL     OW32651   6.417   5.631   5.412 -0.3799 -0.3963 -0.0795
 8220SOL    HW232652   6.355   5.589   5.353 -0.6324 -1.4203  0.8730
 8220SOL    HW332653   6.379   5.620   5.499 -0.8830  2.6152  0.1673
 8220SOL    MW432654   6.404   5.624   5.416  0.4065  0.3542 -0.1869
 8221SOL     OW32655   5.051   5.001   4.212 -0.2069 -0.8259  0.5009
 8221SOL    HW232656   5.042   5.066   4.143  0.0629 -0.1833  1.0594
 8221SOL    HW332657   5.131   5.026   4.258  0.3609 -2.0372  0.2199
 8221SOL    MW432658   5.060   5.013   4.209  0.0501  0.0184 -0.2780
 8222SOL     OW32659   2.504   5.664   0.100  0.4049  0.2222  0.7943
 8222SOL    HW232660   2.545   5.724   0.037 -1.0309 -1.0253 -1.4453
 8222SOL    HW332661   2.459   5.600   0.046  0.2737 -1.7800  3.1286
 8222SOL    MW432662   2.504   5.664   0.085 -0.0362 -0.4897 -0.2278
 8223SOL     OW32663   2.569   1.549   1.998 -0.7951  0.1312  0.3235
 8223SOL    HW232664   2.495   1.566   1.940 -0.8194 -1.3188 -0.1141
 8223SOL    HW332665   2.529   1.525   2.082 -0.8476 -0.8280  0.0367
 8223SOL    MW432666   2.554   1.548   2.002  0.2822  0.2771  0.0894
 8224SOL     OW32667   2.950   3.848   0.199 -0.0958  0.5955 -0.6978
 8224SOL    HW232668   2.930   3.885   0.113  2.1506  1.5045 -0.8936
 8224SOL    HW332669   2.963   3.924   0.255  1.5158  0.0735 -0.3284
 8224SOL    MW432670   2.949   3.863   0.195 -0.4856 -0.1725  0.6367
 8225SOL     OW32671   4.756   0.622   2.001  0.0077  0.0602  0.2735
 8225SOL    HW232672   4.694   0.694   2.006 -0.2089 -0.2269  2.4592
 8225SOL    HW332673   4.785   0.622   1.910 -2.2263  0.9885 -0.4965
 8225SOL    MW432674   4.752   0.632   1.990  0.1726 -0.1349  0.0711
 8226SOL     OW32675   0.235   1.104   1.446  0.7008 -0.7135  0.2756
 8226SOL    HW232676   0.179   1.136   1.375 -0.1393 -2.0077  0.3214
 8226SOL    HW332677   0.192   1.134   1.526 -0.1364 -1.9601  0.3218
 8226SOL    MW432678   0.222   1.112   1.447 -0.8074  0.2511  0.2131
 8227SOL     OW32679   1.175   3.750   1.467 -0.0120  0.2655  0.0442
 8227SOL    HW232680   1.130   3.725   1.548 -0.4081 -1.4499 -0.6680
 8227SOL    HW332681   1.160   3.844   1.459  1.2773  0.7827  2.7184
 8227SOL    MW432682   1.167   3.759   1.477  0.0516  0.3226 -0.2682
 8228SOL     OW32683   5.099   2.342   2.550  0.2256  0.8055 -0.4202
 8228SOL    HW232684   5.108   2.409   2.482  0.1762  0.2650 -0.9666
 8228SOL    HW332685   5.010   2.355   2.584 -0.7872 -0.6149 -2.3200
 8228SOL    MW432686   5.088   2.353   2.545  1.0004 -0.4351  0.0397
 8229SOL     OW32687   5.535   0.722   5.300 -0.1026 -0.0284  0.1957
 8229SOL    HW232688   5.530   0.656   5.370 -1.1689  0.4617  0.6102
 8229SOL    HW332689   5.481   0.687   5.229  1.3898 -0.7596 -0.6101
 8229SOL    MW432690   5.527   0.709   5.300  0.2665 -0.2723  0.1349
 8230SOL     OW32691   6.065   0.860   3.222 -0.0916  0.1046 -0.6107
 8230SOL    HW232692   6.045   0.950   3.247 -1.0387  0.2488 -1.8241
 8230SOL    HW332693   6.022   0.848   3.138 -0.0870 -1.5270 -0.4131
 8230SOL    MW432694   6.057   0.870   3.214 -0.2537  0.2091 -0.0216
 8231SOL     OW32695   1.745   5.844   3.521  0.1490 -0.3307 -0.4929
 8231SOL    HW232696   1.704   5.786   3.457 -0.3219  0.0469 -0.5396
 8231SOL    HW332697   1.678   5.909   3.541  0.3059 -0.4115  0.3485
 8231SOL    MW432698   1.731   5.845   3.515  0.8041 -0.0926 -0.1867
 8232SOL     OW32699   2.649   2.967   3.132  0.0717 -0.3176  0.9029
 8232SOL    HW232700   2.556   2.950   3.119 -0.1121  0.0201  1.7249
 8232SOL    HW332701   2.693   2.910   3.069 -0.7561  1.3609 -1.3354
 8232SOL    MW432702   2.643   2.957   3.122  0.7192  0.3125 -0.5036
 8233SOL     OW32703   0.816   5.138   4.544 -0.1023 -0.0869 -0.4829
 8233SOL    HW232704   0.866   5.219   4.551  0.8554 -0.7806  1.0401
 8233SOL    HW332705   0.850   5.082   4.614 -1.0763 -1.6309 -1.1973
 8233SOL    MW432706   0.827   5.141   4.554 -0.1688  0.1868 -0.7851
 8234SOL     OW32707   4.158   1.786   1.982 -0.2037 -0.2142 -0.0124
 8234SOL    HW232708   4.164   1.791   2.077 -0.6281  0.4532 -0.0130
 8234SOL    HW332709   4.203   1.704   1.959  0.0806 -0.2765  0.7389
 8234SOL    MW432710   4.165   1.776   1.991  0.4203 -0.7080 -0.3166
 8235SOL     OW32711   1.077   5.142   5.159 -0.4662  0.2848  0.2327
 8235SOL    HW232712   1.132   5.120   5.234 -0.9154 -2.0499 -0.0282
 8235SOL    HW332713   1.134   5.192   5.101  1.5942 -2.3185 -0.1900
 8235SOL    MW432714   1.091   5.146   5.161  0.4316  0.3905 -0.0460
 8236SOL     OW32715   1.087   4.935   5.869  0.7755 -0.1802  0.3196
 8236SOL    HW232716   1.134   4.859   5.836  0.6795  0.0872 -0.4623
 8236SOL    HW332717   1.140   4.966   5.943  1.0418 -0.7403  0.3664
 8236SOL    MW432718   1.100   4.929   5.875  0.2649 -0.2903  0.0541
 8237SOL     OW32719   2.951   2.018   5.651  0.1410  0.1505  0.3374
 8237SOL    HW232720   2.941   2.048   5.561 -2.2298  2.9820  1.3701
 8237SOL    HW332721   3.038   1.978   5.654 -0.0477 -0.9069 -3.3633
 8237SOL    MW432722   2.961   2.017   5.640  0.4160 -0.3635 -0.4588
 8238SOL     OW32723   0.880   4.049   4.222 -0.1803 -0.8064  0.0843
 8238SOL    HW232724   0.802   4.105   4.216  0.0030 -0.6294 -0.9119
 8238SOL    HW332725   0.859   3.984   4.289 -1.3186 -0.9577 -0.4009
 8238SOL    MW432726   0.867   4.048   4.230  0.4956  0.1705  0.3664
 8239SOL     OW32727   3.892   5.020   5.968 -0.0836  0.4362  0.3723
 8239SOL    HW232728   3.887   5.053   6.057  0.1407 -1.1239  0.9863
 8239SOL    HW332729   3.908   4.926   5.977  1.9537  0.5317 -1.3096
 8239SOL    MW432730   3.893   5.012   5.981 -0.1594  0.5503  0.2206
 8240SOL     OW32731   0.236   6.060   0.820  0.3722  0.2517  0.6144
 8240SOL    HW232732   0.177   6.008   0.766  1.5458  0.9792 -1.4984
 8240SOL    HW332733   0.311   6.002   0.835  0.0464  0.0499  1.5165
 8240SOL    MW432734   0.238   6.045   0.815 -0.3634  0.2354 -0.4128
 8241SOL     OW32735   3.431   4.297   1.765  0.0045  0.5761  0.0373
 8241SOL    HW232736   3.398   4.384   1.786 -0.4504  1.3517 -3.2949
 8241SOL    HW332737   3.357   4.250   1.727  0.3913 -1.1198  1.2263
 8241SOL    MW432738   3.417   4.302   1.762  0.1635  0.2512 -1.1169
 8242SOL     OW32739   6.409   1.507   3.623 -0.3078  0.0986 -0.3341
 8242SOL    HW232740   6.323   1.538   3.651 -0.0681  0.3862  0.0800
 8242SOL    HW332741   6.394   1.416   3.597 -0.3603 -0.4758  1.5986
 8242SOL    MW432742   6.396   1.499   3.623 -0.4400  0.3269  0.4241
 8243SOL     OW32743   2.104   0.937   6.279  0.0110 -0.1472 -0.0836
 8243SOL    HW232744   2.069   1.002   6.219  0.1001 -0.3660 -0.3713
 8243SOL    HW332745   2.180   0.978   6.319 -1.2586  0.8285  1.4819
 8243SOL    MW432746   2.109   0.951   6.277 -0.5445  0.5446  0.0293
 8244SOL     OW32747   1.311   3.965   3.117 -0.0856 -0.9152  0.3443
 8244SOL    HW232748   1.253   3.986   3.043  1.6202 -0.1493 -0.8437
 8244SOL    HW332749   1.336   3.873   3.103 -0.0757 -0.8872  0.1707
 8244SOL    MW432750   1.307   3.956   3.105 -0.1607  0.6586  0.4118
 8245SOL     OW32751   3.812   1.974   3.244 -0.2923 -0.2930 -0.1745
 8245SOL    HW232752   3.738   1.993   3.186  1.4139  0.3304 -2.3187
 8245SOL    HW332753   3.859   1.903   3.200  0.9814  0.0896  0.5128
 8245SOL    MW432754   3.808   1.967   3.231 -0.2595 -0.0791 -0.1872
 8246SOL     OW32755   5.154   5.928   2.498 -0.7344 -0.7615 -0.3457
 8246SOL    HW232756   5.124   5.909   2.409 -1.2720  0.4543 -0.4535
 8246SOL    HW332757   5.170   6.023   2.497 -1.6008 -0.5720  1.0722
 8246SOL    MW432758   5.152   5.938   2.486 -0.4260  0.0743  0.3381
 8247SOL     OW32759   4.999   1.290   2.079  0.4180 -0.1534 -0.0587
 8247SOL    HW232760   4.940   1.216   2.067  1.4019 -1.3305  1.8184
 8247SOL    HW332761   5.060   1.284   2.006 -0.0814 -0.6263 -0.4495
 8247SOL    MW432762   4.999   1.279   2.068 -0.1775  0.1535  0.0284
 8248SOL     OW32763   4.097   5.309   3.794  0.2729  0.3476 -0.4471
 8248SOL    HW232764   4.117   5.402   3.804 -0.7772  0.5128  0.2677
 8248SOL    HW332765   4.092   5.275   3.884  0.1352 -0.2904 -0.6860
 8248SOL    MW432766   4.099   5.317   3.808 -0.3407 -0.0695 -0.4287
 8249SOL     OW32767   4.065   0.865   0.728 -0.4350  0.1896 -0.0654
 8249SOL    HW232768   4.030   0.901   0.647 -1.9791 -0.3824  0.3152
 8249SOL    HW332769   4.003   0.796   0.753 -1.1235  1.6371  2.6309
 8249SOL    MW432770   4.052   0.861   0.721 -0.1647 -0.5788  0.4471
 8250SOL     OW32771   1.899   6.415   3.824 -0.7431 -0.7352 -0.1129
 8250SOL    HW232772   1.963   6.431   3.893 -1.2912 -1.0009  0.4623
 8250SOL    HW332773   1.937   6.458   3.747  0.2403 -1.0960  0.1517
 8250SOL    MW432774   1.912   6.423   3.823 -0.5542  0.6662  0.2787
 8251SOL     OW32775   2.228   2.865   4.150 -0.2946  0.6559 -0.4220
 8251SOL    HW232776   2.197   2.956   4.140 -0.5727  0.9617  2.4921
 8251SOL    HW332777   2.307   2.872   4.203 -0.3922 -0.8284 -0.0535
 8251SOL    MW432778   2.234   2.878   4.156 -0.0794  0.0184  0.5727
 8252SOL     OW32779   6.399   3.531   0.686  0.0340 -0.1361  0.0609
 8252SOL    HW232780   6.335   3.546   0.755  0.8879 -2.1717  1.4131
 8252SOL    HW332781   6.481   3.567   0.721  0.0212  0.8692 -0.8978
 8252SOL    MW432782   6.401   3.538   0.699  0.2847 -0.1357 -0.5562
 8253SOL     OW32783   0.483   3.014   1.241 -0.1839  0.9442  0.6499
 8253SOL    HW232784   0.444   2.942   1.192  0.5095  0.9648  0.0383
 8253SOL    HW332785   0.566   3.031   1.196 -0.8925  2.9538 -0.0306
 8253SOL    MW432786   0.489   3.007   1.228 -0.2940  0.2653  0.5610
 8254SOL     OW32787   0.778   1.847   2.832 -0.0043  0.1455 -0.5817
 8254SOL    HW232788   0.736   1.842   2.918  0.1050 -1.0589 -0.5802
 8254SOL    HW332789   0.792   1.756   2.807  0.1499  0.4851 -1.7928
 8254SOL    MW432790   0.775   1.834   2.840  0.5040 -0.2648 -0.2512
 8255SOL     OW32791   2.437   4.168   0.383  0.2797 -0.2220 -0.7646
 8255SOL    HW232792   2.387   4.132   0.311  0.1082 -0.7238 -0.4016
 8255SOL    HW332793   2.448   4.261   0.362 -0.0027 -0.3110 -1.2935
 8255SOL    MW432794   2.432   4.175   0.371  0.0558 -0.2649  0.0878
 8256SOL     OW32795   5.546   0.265   0.681  0.0906  0.2975 -0.0201
 8256SOL    HW232796   5.507   0.224   0.604  0.5462 -1.1238  0.4844
 8256SOL    HW332797   5.637   0.234   0.681  0.8951  2.4177 -0.3895
 8256SOL    MW432798   5.553   0.256   0.671 -0.0655  0.0812  0.5891
 8257SOL     OW32799   1.017   0.755   4.637 -0.1509  0.3874 -0.3080
 8257SOL    HW232800   1.015   0.795   4.550 -0.1863  1.7286  0.2873
 8257SOL    HW332801   1.106   0.720   4.645  0.1907  1.1851 -0.4892
 8257SOL    MW432802   1.029   0.755   4.627 -0.2007  0.0030  0.0411
 8258SOL     OW32803   4.301   3.366   3.357  0.1737  0.7960 -0.5935
 8258SOL    HW232804   4.374   3.329   3.307 -0.1747  0.8380 -1.1413
 8258SOL    HW332805   4.339   3.441   3.402  0.2823  1.3444 -1.5695
 8258SOL    MW432806   4.316   3.371   3.356  0.1232  0.5791  0.6877
 8259SOL     OW32807   3.607   1.242   5.028 -0.0965  0.6304  1.0611
 8259SOL    HW232808   3.661   1.168   5.058  0.2527  0.4575  0.0219
 8259SOL    HW332809   3.668   1.315   5.022 -0.1234  0.6093  0.5572
 8259SOL    MW432810   3.623   1.242   5.031 -0.1011 -0.2747  0.1898
 8260SOL     OW32811   1.475   4.897   1.754 -0.4982 -0.2095 -0.4304
 8260SOL    HW232812   1.557   4.847   1.753 -1.2917 -1.5909  0.1989
 8260SOL    HW332813   1.412   4.837   1.793 -1.3676  1.5458  0.9812
 8260SOL    MW432814   1.478   4.882   1.759 -0.0017  0.7704 -0.0730
 8261SOL     OW32815   0.502   5.327   4.505  0.7087  0.1262 -0.1911
 8261SOL    HW232816   0.430   5.312   4.443  2.3456 -1.7479 -1.7664
 8261SOL    HW332817   0.493   5.257   4.569  1.3845 -0.4052 -0.6669
 8261SOL    MW432818   0.491   5.316   4.505 -0.0357 -0.9919 -0.3548
 8262SOL     OW32819   5.416   0.322   5.232  0.1368 -0.2666  0.0692
 8262SOL    HW232820   5.399   0.276   5.150  1.3937 -2.0906  0.7623
 8262SOL    HW332821   5.340   0.378   5.245 -0.1837 -0.0763 -2.2219
 8262SOL    MW432822   5.404   0.323   5.223  0.2784  0.1973  0.0759
 8263SOL     OW32823   3.719   2.227   2.439  0.2424 -0.7883 -0.3989
 8263SOL    HW232824   3.815   2.228   2.448  0.3140  0.5700 -0.9760
 8263SOL    HW332825   3.703   2.173   2.362  0.5898 -0.5908 -0.6151
 8263SOL    MW432826   3.730   2.220   2.430 -0.1944  0.2139  0.3816
 8264SOL     OW32827   5.228   0.246   4.713  0.3419  0.0980 -0.0995
 8264SOL    HW232828   5.275   0.163   4.707  0.0296 -0.1945  1.1627
 8264SOL    HW332829   5.278   0.306   4.658  0.6922 -0.8667 -0.8611
 8264SOL    MW432830   5.241   0.243   4.705 -0.1816  0.0766  0.8646
 8265SOL     OW32831   4.645   1.569   5.038  0.1891 -0.0653 -0.1509
 8265SOL    HW232832   4.632   1.649   4.987  1.0366  0.3379  0.2469
 8265SOL    HW332833   4.651   1.500   4.972 -0.8571  0.1368 -0.4845
 8265SOL    MW432834   4.644   1.570   5.022 -0.4040 -0.2096 -0.1522
 8266SOL     OW32835   0.426   6.089   5.898  0.0514  0.0936 -0.5192
 8266SOL    HW232836   0.424   6.030   5.823  1.8087 -0.8628  0.1294
 8266SOL    HW332837   0.394   6.036   5.971 -0.0730  0.4949 -0.2811
 8266SOL    MW432838   0.422   6.074   5.898  0.4562 -0.1993  0.2411
 8267SOL     OW32839   2.851   6.240   2.251 -0.1741 -0.0467  0.3182
 8267SOL    HW232840   2.911   6.270   2.320  1.4628 -2.2100 -0.0401
 8267SOL    HW332841   2.903   6.246   2.170 -2.1577  2.7602 -0.8991
 8267SOL    MW432842   2.866   6.244   2.249  0.0385  0.1955 -0.2920
 8268SOL     OW32843   5.974   5.461   2.003  0.5481  0.0423 -0.2357
 8268SOL    HW232844   5.989   5.449   2.097  1.1354  0.7146 -0.2378
 8268SOL    HW332845   5.913   5.535   1.998  0.6149  0.0863 -0.3912
 8268SOL    MW432846   5.968   5.469   2.015 -0.2311  0.0183  0.0124
 8269SOL     OW32847   4.619   2.296   4.467  0.0347  0.0007 -0.3339
 8269SOL    HW232848   4.669   2.275   4.387 -0.7945  0.5600 -1.0193
 8269SOL    HW332849   4.528   2.282   4.442 -0.2505  0.4563  0.4355
 8269SOL    MW432850   4.614   2.291   4.453 -1.1932  0.3302  0.0203
 8270SOL     OW32851   5.734   4.904   3.076  0.1802 -0.4853  0.1856
 8270SOL    HW232852   5.753   4.932   2.987 -1.8552  1.5988  0.3119
 8270SOL    HW332853   5.773   4.972   3.131 -0.2229 -0.7442  0.8040
 8270SOL    MW432854   5.742   4.917   3.072  0.1985 -0.8276 -0.0552
 8271SOL     OW32855   1.321   5.713   3.792  0.5031 -0.3829  0.3251
 8271SOL    HW232856   1.384   5.652   3.830 -0.2036 -1.8925 -0.8190
 8271SOL    HW332857   1.269   5.659   3.733 -0.7948  1.1596  0.0095
 8271SOL    MW432858   1.323   5.698   3.789  0.4881 -0.4783  0.0399
 8272SOL     OW32859   3.019   4.678   2.966  0.2972  0.5154 -0.3094
 8272SOL    HW232860   3.073   4.630   3.028 -0.6332  0.5339  0.5547
 8272SOL    HW332861   3.073   4.687   2.887  1.2354 -0.1340  0.2477
 8272SOL    MW432862   3.033   4.673   2.964 -0.2595  0.7645 -0.0989
 8273SOL     OW32863   4.505   5.042   3.805  0.2024  0.1380 -0.1689
 8273SOL    HW232864   4.583   5.063   3.753  0.2058 -1.0644 -0.6870
 8273SOL    HW332865   4.450   4.991   3.746 -0.6062  0.2652  0.4626
 8273SOL    MW432866   4.508   5.038   3.791  0.0014  0.4911  0.2125
 8274SOL     OW32867   3.635   0.483   3.840  0.1510  0.4997  0.1786
 8274SOL    HW232868   3.665   0.489   3.750 -0.4459  1.5699  0.0287
 8274SOL    HW332869   3.588   0.400   3.845  0.9392  0.0199 -0.2489
 8274SOL    MW432870   3.633   0.473   3.829  0.2490 -0.7017 -0.7197
 8275SOL     OW32871   6.420   0.060   5.013 -0.5151 -0.3298  0.2067
 8275SOL    HW232872   6.371   0.134   4.978 -0.3368  0.7954  2.1603
 8275SOL    HW332873   6.491   0.046   4.951 -0.9765  0.6577 -0.5716
 8275SOL    MW432874   6.423   0.068   5.000 -0.1526  0.0013 -0.7269
 8276SOL     OW32875   2.882   4.828   4.485  0.2093 -0.4124  0.2677
 8276SOL    HW232876   2.930   4.906   4.512 -0.4744 -0.0056  0.3451
 8276SOL    HW332877   2.806   4.826   4.544 -1.4881  0.6561 -1.7322
 8276SOL    MW432878   2.878   4.838   4.496 -0.2820  0.5406 -0.0176
 8277SOL     OW32879   1.544   2.432   3.011  0.3682  0.4868  0.0786
 8277SOL    HW232880   1.465   2.382   3.035 -0.2546  1.4602  0.0988
 8277SOL    HW332881   1.561   2.488   3.087  2.0841 -0.8829  0.7748
 8277SOL    MW432882   1.536   2.432   3.024 -0.7566  0.3474 -0.2667
 8278SOL     OW32883   5.622   0.937   4.648  0.5418  0.5390 -0.5493
 8278SOL    HW232884   5.611   0.942   4.743  0.6665 -2.0401 -0.3188
 8278SOL    HW332885   5.560   0.869   4.620  2.2273 -0.5413 -1.9122
 8278SOL    MW432886   5.612   0.928   4.657  0.1233  0.2898  0.1322
 8279SOL     OW32887   0.845   4.541   0.173 -0.3134 -0.0283  0.8335
 8279SOL    HW232888   0.756   4.545   0.137 -0.3190  1.4243  0.9426
 8279SOL    HW332889   0.840   4.474   0.240 -1.4733  0.3421  1.1496
 8279SOL    MW432890   0.832   4.533   0.177  0.4378 -0.1836  0.4841
 8280SOL     OW32891   6.372   1.198   5.823  0.2081  0.2623 -0.1795
 8280SOL    HW232892   6.293   1.252   5.824  0.1540  0.1896 -0.4345
 8280SOL    HW332893   6.390   1.181   5.915  0.1251  0.5669 -0.1058
 8280SOL    MW432894   6.364   1.203   5.835 -0.0828  0.4172  0.4521
 8281SOL     OW32895   5.589   1.717   4.145 -0.1178  0.6763  0.5897
 8281SOL    HW232896   5.584   1.792   4.087  1.0447  0.9688  0.8416
 8281SOL    HW332897   5.561   1.643   4.091 -0.9508  1.2237  0.2464
 8281SOL    MW432898   5.584   1.717   4.130  0.8500  0.0852  0.1331
 8282SOL     OW32899   2.600   2.815   1.762  0.4013  0.3652  0.2959
 8282SOL    HW232900   2.669   2.881   1.770  2.4010 -1.6484  0.7382
 8282SOL    HW332901   2.578   2.792   1.852 -0.8696  0.9613  0.1566
 8282SOL    MW432902   2.606   2.821   1.775  0.3708  0.1782 -0.7974
 8283SOL     OW32903   0.408   2.436   3.738  0.7092 -0.1802 -0.1368
 8283SOL    HW232904   0.396   2.416   3.831  2.3731  0.0930  0.1679
 8283SOL    HW332905   0.324   2.412   3.698  0.7764 -2.7665  1.0206
 8283SOL    MW432906   0.395   2.430   3.745 -0.4748 -0.1005 -0.1302
 8284SOL     OW32907   3.484   0.808   6.418  0.4341  0.0897 -0.1003
 8284SOL    HW232908   3.481   0.722   6.376 -3.4109 -0.3830  0.7351
 8284SOL    HW332909   3.552   0.800   6.485  1.9190 -1.3792 -1.6784
 8284SOL    MW432910   3.493   0.795   6.422 -0.0397 -0.0295  0.0171
 8285SOL     OW32911   0.693   0.292   6.300  0.3914  0.4072  0.1713
 8285SOL    HW232912   0.763   0.331   6.247  0.0830  0.5675 -0.1253
 8285SOL    HW332913   0.614   0.303   6.247  0.1453  0.2034  0.4908
 8285SOL    MW432914   0.692   0.299   6.286  0.1915  0.0931 -0.0658
 8286SOL     OW32915   1.033   5.424   3.954  0.0163  0.1569 -0.2558
 8286SOL    HW232916   1.088   5.503   3.960  0.4506 -0.1810  0.3009
 8286SOL    HW332917   1.073   5.373   3.883 -0.0039  0.2385 -0.3259
 8286SOL    MW432918   1.046   5.428   3.945  0.0890  0.1012 -0.0356
 8287SOL     OW32919   4.888   1.864   5.211  0.8860 -0.0792  0.2936
 8287SOL    HW232920   4.889   1.919   5.133  1.3111 -1.8967 -1.0630
 8287SOL    HW332921   4.980   1.839   5.224  0.8061  0.1477  1.3293
 8287SOL    MW432922   4.901   1.868   5.202 -0.0478  0.0343  0.0795
 8288SOL     OW32923   2.301   0.154   4.194  0.0436 -0.3523  0.3845
 8288SOL    HW232924   2.334   0.242   4.212 -0.4836  0.0460 -0.5132
 8288SOL    HW332925   2.242   0.136   4.267 -1.8513  1.1217 -0.6733
 8288SOL    MW432926   2.297   0.164   4.206 -0.0357 -0.2151  0.0775
 8289SOL     OW32927   0.667   0.005   4.203  0.1599  0.3185 -0.5217
 8289SOL    HW232928   0.631  -0.029   4.285  0.0610  0.9687 -0.2937
 8289SOL    HW332929   0.670  -0.071   4.146  2.7402 -0.8080  0.9090
 8289SOL    MW432930   0.662  -0.010   4.207 -0.2148 -0.0827 -0.1656
 8290SOL     OW32931   2.551   4.046   4.384  0.3911  0.2772  0.1561
 8290SOL    HW232932   2.456   4.051   4.378  0.2874  0.1829  1.4546
 8290SOL    HW332933   2.570   4.057   4.477  1.8045  2.7404 -0.3302
 8290SOL    MW432934   2.541   4.048   4.395 -0.3981  0.2172 -0.3350
 8291SOL     OW32935   5.224   2.981   5.933 -0.2945 -0.2784  0.2806
 8291SOL    HW232936   5.228   2.918   6.005 -0.9631  1.2929  1.7430
 8291SOL    HW332937   5.132   2.981   5.905 -0.1574 -0.4397 -0.1889
 8291SOL    MW432938   5.213   2.973   5.939 -0.0274  0.0416  0.5944
 8292SOL     OW32939   6.055   5.473   0.173  0.2220 -0.7872  0.9121
 8292SOL    HW232940   6.027   5.563   0.159 -2.1980 -1.5073  0.5476
 8292SOL    HW332941   6.142   5.480   0.212 -0.1043  1.6970  1.3571
 8292SOL    MW432942   6.062   5.486   0.177  0.1918  0.3796  0.2595
 8293SOL     OW32943   3.377   6.341   4.761  0.3559  0.2579  0.2082
 8293SOL    HW232944   3.452   6.282   4.749  0.5787  0.5085  0.3508
 8293SOL    HW332945   3.358   6.337   4.854  0.8508  0.9804  0.3510
 8293SOL    MW432946   3.385   6.333   4.772 -0.3419  0.3967  0.3682
 8294SOL     OW32947   1.032   3.180   5.214  0.1148 -0.4158  0.3955
 8294SOL    HW232948   1.067   3.173   5.303  1.2721 -0.0957 -0.0136
 8294SOL    HW332949   1.050   3.095   5.174 -1.5316 -1.0020  0.8326
 8294SOL    MW432950   1.039   3.168   5.220  0.3052  0.0526  0.4743
 8295SOL     OW32951   2.764   2.290   4.181 -0.0118 -0.4757  0.0743
 8295SOL    HW232952   2.702   2.275   4.253  0.4263  0.3424  0.6315
 8295SOL    HW332953   2.758   2.210   4.128  0.1084 -1.3632  1.3544
 8295SOL    MW432954   2.755   2.277   4.184  0.1805 -0.2797  0.0136
 8296SOL     OW32955   2.996   0.407   6.047  0.3173 -0.1770  0.0527
 8296SOL    HW232956   3.030   0.496   6.036  1.0996 -0.5019 -0.2430
 8296SOL    HW332957   2.917   0.417   6.101  0.8247  0.6111  0.6562
 8296SOL    MW432958   2.990   0.420   6.053 -0.2584 -0.4903 -0.6740
 8297SOL     OW32959   1.282   1.105   4.404 -0.0183 -0.4254  0.2503
 8297SOL    HW232960   1.347   1.165   4.439 -0.0285  0.5794 -1.3448
 8297SOL    HW332961   1.330   1.025   4.384  0.7157  0.2364 -0.7120
 8297SOL    MW432962   1.297   1.102   4.406  0.0253  0.3694 -0.1260
 8298SOL     OW32963   3.459   2.973   3.916  0.1988  0.2200  0.0003
 8298SOL    HW232964   3.408   2.914   3.971 -0.1455  0.5592  0.0524
 8298SOL    HW332965   3.549   2.940   3.922 -0.0142 -0.3969 -0.1083
 8298SOL    MW432966   3.464   2.961   3.924 -0.1819  0.2409 -0.1243
 8299SOL     OW32967   4.991   6.113   3.021  0.5322 -0.6009 -0.5568
 8299SOL    HW232968   5.061   6.138   2.961  0.6114 -0.6250 -0.4736
 8299SOL    HW332969   4.958   6.031   2.986  0.4776 -0.5374 -0.6543
 8299SOL    MW432970   4.996   6.106   3.009  0.4917  0.8950 -0.1412
 8300SOL     OW32971   4.493   5.676   4.597 -0.1531 -0.3958  0.4074
 8300SOL    HW232972   4.452   5.627   4.668  1.4696 -0.5343  1.3007
 8300SOL    HW332973   4.444   5.650   4.519  0.4496 -3.3115  0.8770
 8300SOL    MW432974   4.481   5.666   4.596 -0.2479  0.0349 -0.1283
 8301SOL     OW32975   5.007   0.893   4.163  0.1540 -0.4856  0.1542
 8301SOL    HW232976   4.914   0.879   4.179  0.4405 -1.6677  0.9039
 8301SOL    HW332977   5.018   0.988   4.162 -1.4307 -0.2351 -2.2275
 8301SOL    MW432978   4.996   0.904   4.165 -0.1012 -0.6119  0.4312
 8302SOL     OW32979   1.166   4.623   1.633 -0.1148 -0.1519  0.0301
 8302SOL    HW232980   1.134   4.533   1.623  0.2516 -0.4349  1.1780
 8302SOL    HW332981   1.095   4.678   1.599 -0.5931 -0.8580 -0.1379
 8302SOL    MW432982   1.152   4.618   1.627  0.1212 -0.1604  0.2332
 8303SOL     OW32983   3.932   5.160   5.420  0.1104  0.1806  0.4465
 8303SOL    HW232984   3.957   5.238   5.371  0.2713 -0.2106 -0.1105
 8303SOL    HW332985   3.954   5.180   5.511  0.7505  0.5450  0.2191
 8303SOL    MW432986   3.939   5.173   5.425  0.2872  0.0038  0.3944
 8304SOL     OW32987   3.260   3.722   3.260  0.2069  0.7840 -0.5054
 8304SOL    HW232988   3.294   3.693   3.176 -1.4779 -3.9853  0.1211
 8304SOL    HW332989   3.307   3.669   3.325 -0.3536  2.4307  1.3606
 8304SOL    MW432990   3.270   3.711   3.258  0.0275  0.5998 -0.4746
 8305SOL     OW32991   5.270   1.153   0.908 -0.1060  0.0051 -0.1532
 8305SOL    HW232992   5.223   1.100   0.973  1.8277 -2.7413 -0.8179
 8305SOL    HW332993   5.202   1.180   0.846 -1.3992 -0.5050  0.9894
 8305SOL    MW432994   5.255   1.150   0.908 -0.1077  0.1720 -0.0296
 8306SOL     OW32995   0.911   2.796   4.031 -0.4287 -0.0770  0.4001
 8306SOL    HW232996   0.989   2.766   3.985 -1.0568 -1.6995  0.3384
 8306SOL    HW332997   0.916   2.755   4.117 -2.6360 -2.6801 -0.5883
 8306SOL    MW432998   0.922   2.787   4.036 -0.0574  0.4234 -0.4268
 8307SOL     OW32999   3.479   3.027   5.559  0.3411  0.2983 -0.2314
 8307SOL    HW233000   3.512   3.030   5.470  0.3451  2.5256 -0.2201
 8307SOL    HW333001   3.554   2.999   5.612  0.2108 -1.4661 -0.9496
 8307SOL    MW433002   3.493   3.024   5.554 -0.2128 -0.0672  0.0027
 8308SOL     OW33003   3.903   4.300   4.596 -0.2918 -0.0337  0.3661
 8308SOL    HW233004   3.841   4.258   4.537 -2.2476 -0.6032  2.6683
 8308SOL    HW333005   3.981   4.244   4.593 -1.4419 -1.7123  0.5124
 8308SOL    MW433006   3.905   4.287   4.588 -0.7224  0.1678  0.3530
 8309SOL     OW33007   3.470   2.007   4.077  0.3983 -0.2353  0.1072
 8309SOL    HW233008   3.499   1.978   4.163  0.0797  0.0967  0.3258
 8309SOL    HW333009   3.550   2.012   4.025  0.5469 -0.8114  0.2714
 8309SOL    MW433010   3.484   2.003   4.081  0.7015 -0.2192 -0.0136
 8310SOL     OW33011   3.367   5.185   1.333  0.2996  0.3317 -0.0086
 8310SOL    HW233012   3.457   5.217   1.339  0.4463 -0.2614  1.4565
 8310SOL    HW333013   3.374   5.103   1.284  0.4118  0.7159 -0.6579
 8310SOL    MW433014   3.380   5.179   1.327 -0.4723 -0.0460 -0.4313
 8311SOL     OW33015   6.235   3.530   4.599  0.2372 -0.4161  0.1648
 8311SOL    HW233016   6.160   3.499   4.549 -0.2200 -1.3913  1.3941
 8311SOL    HW333017   6.311   3.506   4.546 -0.3021  1.8759 -1.7920
 8311SOL    MW433018   6.236   3.523   4.585 -0.3792 -0.7363 -0.0783
 8312SOL     OW33019   1.912   2.669   6.426 -0.6312 -0.2018  0.3567
 8312SOL    HW233020   1.819   2.669   6.448 -0.8261 -0.0847 -0.4589
 8312SOL    HW333021   1.955   2.690   6.509 -1.3403 -0.0006  0.6872
 8312SOL    MW433022   1.905   2.672   6.440  0.3557  0.2368  0.5088
 8313SOL     OW33023   4.276   3.754   4.206  0.3362 -0.1683  0.3124
 8313SOL    HW233024   4.284   3.727   4.114  2.7194 -1.4788  0.8272
 8313SOL    HW333025   4.205   3.699   4.240 -3.1881  2.8137 -1.4443
 8313SOL    MW433026   4.268   3.743   4.198  0.4225  0.1421  0.0520
 8314SOL     OW33027   3.587   0.715   1.149 -0.0247 -0.0903  0.2013
 8314SOL    HW233028   3.577   0.620   1.155  1.6518 -0.2622  0.6700
 8314SOL    HW333029   3.558   0.736   1.060 -1.2073 -0.9091  0.3677
 8314SOL    MW433030   3.581   0.705   1.138 -0.2078 -0.4807  0.2647
 8315SOL     OW33031   5.029   5.198   4.027  0.1803  0.5408 -0.1495
 8315SOL    HW233032   4.936   5.205   4.005  0.4328  1.0867 -1.1168
 8315SOL    HW333033   5.054   5.286   4.057  0.5924  0.6496 -0.7900
 8315SOL    MW433034   5.020   5.210   4.028  0.6248  0.7271  0.6138
 8316SOL     OW33035   1.762   2.097   5.104  0.2808 -0.3638 -0.1013
 8316SOL    HW233036   1.817   2.174   5.116  0.5033 -0.8994  3.2657
 8316SOL    HW333037   1.692   2.107   5.169 -0.9866 -1.9225 -1.1482
 8316SOL    MW433038   1.760   2.109   5.114 -0.8867 -0.3988  0.2039
 8317SOL     OW33039   3.975   0.499   0.517  0.1104 -0.2034  0.4890
 8317SOL    HW233040   4.053   0.457   0.555  1.0705 -0.6689 -1.8480
 8317SOL    HW333041   4.008   0.578   0.476 -1.0933  0.9011  1.5688
 8317SOL    MW433042   3.990   0.504   0.517 -0.0294 -0.4651  0.3240
 8318SOL     OW33043   4.289   1.939   4.366 -0.1363  0.1063  0.3559
 8318SOL    HW233044   4.193   1.933   4.370 -0.0526 -0.9852  2.7252
 8318SOL    HW333045   4.315   1.869   4.307 -0.7838  0.5702 -0.5061
 8318SOL    MW433046   4.280   1.929   4.359  0.1096 -0.1967  0.0211
 8319SOL     OW33047   0.186   4.269   1.152  0.1587 -0.1987  0.4497
 8319SOL    HW233048   0.213   4.177   1.148  0.2427 -0.1909  0.7706
 8319SOL    HW333049   0.109   4.274   1.096  0.7016 -0.2605 -0.3138
 8319SOL    MW433050   0.179   4.258   1.144  0.2336  0.3023 -0.2618
 8320SOL     OW33051   0.742   1.268   5.217  0.7036  0.0802  0.0543
 8320SOL    HW233052   0.823   1.275   5.267  0.9826  0.1472 -0.4040
 8320SOL    HW333053   0.767   1.291   5.128  0.1516  0.2322 -0.0626
 8320SOL    MW433054   0.756   1.272   5.212 -0.1981  0.5416  0.0746
 8321SOL     OW33055   1.815   4.331   6.258  0.1902 -0.4846  0.1719
 8321SOL    HW233056   1.727   4.370   6.259 -1.3503 -3.5217 -2.0762
 8321SOL    HW333057   1.805   4.249   6.306  1.4121 -1.5403 -1.2846
 8321SOL    MW433058   1.802   4.325   6.265  0.1678  0.2948  0.4996
 8322SOL     OW33059   1.507   2.343   4.248 -0.1590  0.4253 -0.0513
 8322SOL    HW233060   1.546   2.268   4.294 -2.4942 -0.6194  0.3883
 8322SOL    HW333061   1.459   2.390   4.316  1.0000  2.2012 -0.3910
 8322SOL    MW433062   1.506   2.339   4.263 -0.5106  0.5902  0.1103
 8323SOL     OW33063   0.769   5.646   5.410  0.5531  0.0883  0.5269
 8323SOL    HW233064   0.697   5.585   5.399  0.9523 -0.9206  2.7931
 8323SOL    HW333065   0.728   5.728   5.434  0.1029  0.0259 -0.0162
 8323SOL    MW433066   0.754   5.648   5.412  0.1034 -0.1143 -0.5049
 8324SOL     OW33067   1.715   5.385   0.904  0.2782  0.1869 -0.1025
 8324SOL    HW233068   1.639   5.429   0.942 -0.7418 -0.4851 -1.2698
 8324SOL    HW333069   1.741   5.321   0.971 -0.9486 -0.3999 -0.1427
 8324SOL    MW433070   1.708   5.382   0.918  0.0409  0.0532  0.6167
 8325SOL     OW33071   2.909   4.903   4.198 -0.0681  0.0261  0.2475
 8325SOL    HW233072   2.850   4.898   4.273  0.2758 -1.9781  0.4390
 8325SOL    HW333073   2.918   4.997   4.181 -2.6943  0.4390  0.6788
 8325SOL    MW433074   2.902   4.915   4.205  0.5942  0.2251 -0.2039
 8326SOL     OW33075   3.726   0.293   4.254  0.4144 -0.3614 -0.3968
 8326SOL    HW233076   3.660   0.361   4.244  0.2911 -0.3029  0.6768
 8326SOL    HW333077   3.779   0.299   4.175  0.5413  1.1254 -0.2157
 8326SOL    MW433078   3.724   0.303   4.243  0.0325  0.2344  0.6191
 8327SOL     OW33079   5.983   3.794   0.190 -0.0724  0.1112  0.0588
 8327SOL    HW233080   5.904   3.740   0.184 -0.2568  0.4744 -0.9098
 8327SOL    HW333081   6.055   3.732   0.186 -0.3001 -0.1580  0.0901
 8327SOL    MW433082   5.982   3.779   0.189  0.5094  0.4025 -0.1037
 8328SOL     OW33083   4.101   5.664   3.328 -0.3743  1.0899 -0.3419
 8328SOL    HW233084   4.163   5.727   3.293  0.5123  0.5485  0.2086
 8328SOL    HW333085   4.025   5.716   3.353  0.0109  1.8177 -0.6698
 8328SOL    MW433086   4.099   5.679   3.327  0.3073 -0.9294  0.3829
 8329SOL     OW33087   5.545   2.959   3.523 -0.5399 -0.4015 -0.4844
 8329SOL    HW233088   5.583   3.037   3.563 -0.7113 -1.1623  1.2410
 8329SOL    HW333089   5.474   2.993   3.468 -0.8777  0.6509  0.5461
 8329SOL    MW433090   5.541   2.974   3.521  0.0324  0.1135 -0.1249
 8330SOL     OW33091   0.427   5.728   2.794  0.9480  0.0512 -0.1027
 8330SOL    HW233092   0.521   5.710   2.805  1.1177  1.1848  0.4712
 8330SOL    HW333093   0.423   5.803   2.735  0.4097  0.1359  0.0331
 8330SOL    MW433094   0.439   5.735   2.788 -0.4515  0.3122 -0.6602
 8331SOL     OW33095   1.808   6.343   4.198  0.5205 -0.4759 -0.7025
 8331SOL    HW233096   1.727   6.291   4.195 -1.0089  1.6500  0.5668
 8331SOL    HW333097   1.867   6.300   4.137 -1.2042 -2.7185 -0.9048
 8331SOL    MW433098   1.805   6.331   4.190  0.0945  0.0740 -0.2677
 8332SOL     OW33099   2.624   3.459   3.394  0.1205  0.2671 -0.2739
 8332SOL    HW233100   2.618   3.395   3.323 -0.1073 -0.7268  0.6064
 8332SOL    HW333101   2.630   3.405   3.474 -0.4153  1.3459  0.5144
 8332SOL    MW433102   2.624   3.443   3.396 -0.0316 -0.0900  0.0351
 8333SOL     OW33103   2.104   5.488   3.996 -0.2967 -0.0993 -0.0649
 8333SOL    HW233104   2.137   5.435   3.924  1.4490  0.2636  0.4114
 8333SOL    HW333105   2.183   5.521   4.040 -1.3139  0.9597  1.0673
 8333SOL    MW433106   2.118   5.486   3.993 -0.3603  0.3275  0.1321
 8334SOL     OW33107   0.622   4.996   5.266  0.6892 -0.5937 -0.4868
 8334SOL    HW233108   0.591   5.068   5.322 -0.6888 -0.6774 -1.1016
 8334SOL    HW333109   0.715   4.989   5.286  0.8067  1.1833 -0.2182
 8334SOL    MW433110   0.630   5.005   5.276 -0.1172  0.4805 -0.2572
 8335SOL     OW33111   3.799   2.961   5.186  0.1135  0.3822 -0.8261
 8335SOL    HW233112   3.859   3.000   5.123 -0.4789  1.8111 -0.5357
 8335SOL    HW333113   3.785   3.029   5.252 -1.1323 -0.2343 -0.4185
 8335SOL    MW433114   3.805   2.975   5.186 -0.4574 -0.0708  0.3091
 8336SOL     OW33115   0.848   0.832   2.869  0.0903  0.7279  0.1042
 8336SOL    HW233116   0.845   0.923   2.899 -0.0341  0.8321 -0.2178
 8336SOL    HW333117   0.767   0.820   2.820 -0.1836  0.2514  0.6751
 8336SOL    MW433118   0.837   0.843   2.866 -0.1661 -0.0187 -0.2125
 8337SOL     OW33119   5.920   1.973   4.831 -0.2565 -0.0581  0.0365
 8337SOL    HW233120   5.949   1.978   4.739 -0.1157  0.0918  0.0886
 8337SOL    HW333121   5.942   2.058   4.868 -1.8024  0.4801 -0.2113
 8337SOL    MW433122   5.927   1.985   4.823 -0.1922 -0.3243 -0.0260
 8338SOL     OW33123   4.207   4.965   3.937 -0.4744  0.2474 -0.1440
 8338SOL    HW233124   4.162   4.901   3.992  0.7891  1.1325  2.0327
 8338SOL    HW333125   4.299   4.937   3.938 -0.1440  1.2802 -0.3164
 8338SOL    MW433126   4.213   4.953   3.944  0.2666 -0.1217  0.4839
 8339SOL     OW33127   4.390   1.723   0.190 -0.4424 -0.2275 -0.2544
 8339SOL    HW233128   4.421   1.785   0.257 -0.3743 -0.6663  0.1266
 8339SOL    HW333129   4.458   1.725   0.123 -0.2738 -0.1412 -0.0835
 8339SOL    MW433130   4.403   1.732   0.190  0.2121  0.1373 -0.2448
 8340SOL     OW33131   5.602   4.049   3.552 -0.4906 -0.3866 -0.0488
 8340SOL    HW233132   5.687   4.006   3.557 -0.8631 -1.3217 -1.2224
 8340SOL    HW333133   5.618   4.129   3.502 -0.3760 -0.8480 -0.7771
 8340SOL    MW433134   5.615   4.054   3.546  0.0994  0.3554 -0.0568
 8341SOL     OW33135   0.755   6.014   3.278  0.5817  0.3152 -0.6004
 8341SOL    HW233136   0.805   5.934   3.291  0.0334  0.0159 -0.3054
 8341SOL    HW333137   0.679   5.987   3.227 -0.1539  0.4398  0.3993
 8341SOL    MW433138   0.752   6.000   3.273  0.6496 -0.5668  0.4419
 8342SOL     OW33139   2.396   5.852   5.381  0.0399 -0.6427 -0.5974
 8342SOL    HW233140   2.450   5.851   5.461 -0.4621  1.6080 -0.1519
 8342SOL    HW333141   2.448   5.805   5.317  1.7881 -0.0339  0.2974
 8342SOL    MW433142   2.410   5.846   5.383 -0.3645 -0.3087  0.7013
 8343SOL     OW33143   0.717   1.833   3.747 -0.3609  0.5418  0.3831
 8343SOL    HW233144   0.742   1.807   3.835  0.8930  0.3167 -0.0212
 8343SOL    HW333145   0.782   1.898   3.721  1.5188 -1.9343 -1.6604
 8343SOL    MW433146   0.728   1.838   3.755 -0.2404 -0.2563  0.6585
 8344SOL     OW33147   3.162   5.618   4.675 -0.3826  0.1458  0.0695
 8344SOL    HW233148   3.179   5.602   4.582 -0.7084 -1.4592  0.2588
 8344SOL    HW333149   3.248   5.636   4.713  0.0368 -1.1445 -0.2095
 8344SOL    MW433150   3.176   5.618   4.668 -0.1084 -0.5601 -0.5441
 8345SOL     OW33151   2.151  -0.001   3.979  0.4282 -0.2933  0.3707
 8345SOL    HW233152   2.213  -0.016   3.907  0.9583  5.1681 -0.7136
 8345SOL    HW333153   2.203   0.045   4.045 -1.5667  0.8387  1.2200
 8345SOL    MW433154   2.166   0.003   3.978  0.5191 -0.6525 -0.2121
 8346SOL     OW33155   3.011   2.618   1.245  0.1766 -0.1140 -0.1918
 8346SOL    HW233156   3.089   2.574   1.210 -0.2414  0.0295 -1.3447
 8346SOL    HW333157   2.938   2.573   1.203 -0.2975  0.8853 -0.4562
 8346SOL    MW433158   3.012   2.606   1.235  0.2256 -0.2261 -0.1369
 8347SOL     OW33159   3.923   5.166   5.054  0.5936 -0.4094  0.3515
 8347SOL    HW233160   3.827   5.171   5.048  0.5926 -0.4228  0.3556
 8347SOL    HW333161   3.949   5.113   4.979  0.5984 -0.4019  0.3479
 8347SOL    MW433162   3.914   5.160   5.043  0.2151 -0.3864 -0.0801
 8348SOL     OW33163   3.504   1.906   0.836  0.4298 -0.1208 -0.0337
 8348SOL    HW233164   3.474   1.930   0.924  0.5149 -0.2988  0.0440
 8348SOL    HW333165   3.577   1.846   0.851  1.4423  1.0220 -0.2027
 8348SOL    MW433166   3.510   1.901   0.850  0.4613  0.1055 -0.9282
 8349SOL     OW33167   0.431   3.359   2.469  0.1614  0.1377  0.0419
 8349SOL    HW233168   0.483   3.282   2.488 -1.3041 -1.2608 -1.3235
 8349SOL    HW333169   0.340   3.331   2.482 -0.3532  2.0347  0.8533
 8349SOL    MW433170   0.426   3.345   2.473  0.8242 -0.6848  0.1014
 8350SOL     OW33171   1.215   1.917   1.610  0.5152  0.2296  0.3738
 8350SOL    HW233172   1.141   1.896   1.667  1.3822 -1.6275  0.9018
 8350SOL    HW333173   1.262   1.834   1.600  0.9595  0.7046 -2.2630
 8350SOL    MW433174   1.212   1.903   1.616  0.1769 -0.2117  0.7172
 8351SOL     OW33175   2.209   1.255   5.324 -0.0148 -0.1010 -0.0450
 8351SOL    HW233176   2.229   1.173   5.278 -1.7195  0.2645 -1.5505
 8351SOL    HW333177   2.206   1.321   5.255  1.0494  1.2126  1.1071
 8351SOL    MW433178   2.211   1.252   5.309 -0.3144  0.4299 -0.0588
 8352SOL     OW33179   3.178   6.069   5.409  0.5947 -0.8407 -0.9478
 8352SOL    HW233180   3.111   6.022   5.360  0.6087 -1.5970 -0.2543
 8352SOL    HW333181   3.222   6.002   5.462 -1.3556  0.2796  2.3954
 8352SOL    MW433182   3.175   6.054   5.409  0.0007  0.1928  0.1878
 8353SOL     OW33183   0.728   0.741   3.331  0.6132 -0.0881  0.2918
 8353SOL    HW233184   0.780   0.720   3.254  0.0639  1.1029 -0.4319
 8353SOL    HW333185   0.769   0.819   3.368  0.1680  0.0507  0.5079
 8353SOL    MW433186   0.740   0.748   3.326 -0.1820  0.3890 -0.5000
 8354SOL     OW33187   4.495   1.855   1.655 -0.2503  0.0717 -0.2311
 8354SOL    HW233188   4.557   1.789   1.684  1.3175  1.4999 -0.1420
 8354SOL    HW333189   4.480   1.910   1.732 -1.7635 -0.3236 -0.2177
 8354SOL    MW433190   4.501   1.854   1.669  0.3107  0.4082  0.2386
 8355SOL     OW33191   3.830   6.413   3.601 -0.8490 -0.6923 -0.1635
 8355SOL    HW233192   3.809   6.411   3.508 -0.0127  2.7151 -0.5705
 8355SOL    HW333193   3.746   6.412   3.646 -1.2444 -3.1275 -0.8301
 8355SOL    MW433194   3.816   6.413   3.595 -0.0506  0.0266  0.2013
 8356SOL     OW33195   0.856   1.441   3.784 -0.4138  0.0506 -0.4502
 8356SOL    HW233196   0.860   1.361   3.732 -1.3128 -0.2952  0.0030
 8356SOL    HW333197   0.804   1.418   3.861 -3.4062  1.8054 -1.7381
 8356SOL    MW433198   0.849   1.428   3.787  0.0034 -0.1115 -0.6156
 8357SOL     OW33199   4.454   6.110   4.515  0.1023  0.1432 -0.0370
 8357SOL    HW233200   4.372   6.159   4.507 -0.0657 -0.0807  0.3031
 8357SOL    HW333201   4.472   6.081   4.426  1.1826  2.3692 -0.6321
 8357SOL    MW433202   4.445   6.113   4.502 -0.6840 -0.0155 -0.8995
 8358SOL     OW33203   3.908   5.253   4.724 -0.2215 -0.0252 -0.1684
 8358SOL    HW233204   3.888   5.235   4.632 -0.4307 -0.2214 -0.0859
 8358SOL    HW333205   3.945   5.171   4.758 -0.1618  0.0405 -0.0717
 8358SOL    MW433206   3.910   5.240   4.717  0.5908 -0.0512  0.4567
 8359SOL     OW33207   1.656   4.202   1.138  0.0596  0.2306  0.1984
 8359SOL    HW233208   1.649   4.297   1.143  0.1541  0.3751 -1.7302
 8359SOL    HW333209   1.749   4.186   1.122  0.0761 -0.1979  0.7071
 8359SOL    MW433210   1.668   4.212   1.136 -0.9151 -0.4497  0.5502
 8360SOL     OW33211   5.745   4.962   5.890 -0.2349 -0.4457 -0.0850
 8360SOL    HW233212   5.785   4.948   5.804 -0.2995 -0.3881 -0.1254
 8360SOL    HW333213   5.792   4.903   5.949 -1.1397 -1.5631 -0.4346
 8360SOL    MW433214   5.756   4.952   5.886  0.3867  0.1450 -0.5995
 8361SOL     OW33215   5.710   2.712   2.543  1.0362 -0.2746  0.1080
 8361SOL    HW233216   5.797   2.749   2.530  1.6115 -1.0253  1.5152
 8361SOL    HW333217   5.698   2.651   2.470  0.9177  1.1493 -1.0887
 8361SOL    MW433218   5.720   2.709   2.532 -1.1476  0.5379 -0.3966
 8362SOL     OW33219   1.713   4.530   2.905 -0.3658 -0.2715 -0.1937
 8362SOL    HW233220   1.776   4.601   2.894  0.1830 -0.7478 -0.1623
 8362SOL    HW333221   1.764   4.458   2.942 -0.7855 -0.8666 -0.7438
 8362SOL    MW433222   1.728   4.529   2.908  0.4883 -0.2491 -0.0211
 8363SOL     OW33223   4.925   2.717   3.452  0.2647 -0.2966 -0.4746
 8363SOL    HW233224   5.012   2.693   3.419  1.0795 -1.4524  2.1558
 8363SOL    HW333225   4.875   2.636   3.446 -0.4889  0.2282 -1.4715
 8363SOL    MW433226   4.930   2.703   3.447  0.0296 -0.8406 -0.2376
 8364SOL     OW33227   6.173   5.556   3.909 -0.6074 -0.7573  0.5078
 8364SOL    HW233228   6.186   5.560   3.815 -0.5419 -2.3762  0.4108
 8364SOL    HW333229   6.147   5.644   3.934  0.4426 -0.0334 -0.8455
 8364SOL    MW433230   6.171   5.568   3.900  0.2481 -0.3678  0.2090
 8365SOL     OW33231   3.544   2.062   2.698 -0.4847  0.0518 -0.2051
 8365SOL    HW233232   3.597   2.135   2.731  0.4879 -1.7779  2.6897
 8365SOL    HW333233   3.454   2.092   2.708 -0.1401  0.5497  1.8906
 8365SOL    MW433234   3.539   2.076   2.704  0.2528 -0.2975  0.4528
 8366SOL     OW33235   6.302   0.882   1.165 -0.0066  0.2003  0.2630
 8366SOL    HW233236   6.274   0.855   1.077 -0.0979  0.0990  0.3230
 8366SOL    HW333237   6.391   0.847   1.173 -1.3617 -3.3827  1.7347
 8366SOL    MW433238   6.310   0.874   1.155 -0.1588 -0.0943 -0.0188
 8367SOL     OW33239   3.675   3.150   2.010 -0.3398  0.3505  1.0497
 8367SOL    HW233240   3.637   3.064   2.029 -0.4406  0.1135 -0.1812
 8367SOL    HW333241   3.608   3.212   2.041 -1.3411 -0.0509 -0.2230
 8367SOL    MW433242   3.661   3.147   2.017 -0.2485 -0.0574  0.1772
 8368SOL     OW33243   2.979   5.331   4.545 -0.2077  0.3131  0.1031
 8368SOL    HW233244   2.962   5.378   4.464 -0.7362 -0.8044 -0.4519
 8368SOL    HW333245   2.929   5.378   4.611 -1.3875  0.0652 -0.5900
 8368SOL    MW433246   2.970   5.343   4.543 -0.1502 -0.2446  0.1070
 8369SOL     OW33247   1.814   6.163   3.739 -0.1491 -0.4531 -0.4986
 8369SOL    HW233248   1.848   6.251   3.758 -0.6330 -0.0970 -1.2347
 8369SOL    HW333249   1.815   6.119   3.824 -2.7205  1.2644  0.5616
 8369SOL    MW433250   1.818   6.169   3.753 -0.5371 -1.0743  0.1948
 8370SOL     OW33251   4.669   3.951   0.106 -0.2201  0.0454 -0.0106
 8370SOL    HW233252   4.732   4.017   0.079  0.2677 -0.5464 -0.3562
 8370SOL    HW333253   4.620   3.931   0.026 -1.8493  1.5365  0.5622
 8370SOL    MW433254   4.671   3.957   0.092 -0.2154 -0.0636  0.7277
 8371SOL     OW33255   2.671   2.194   3.590  0.0839  0.2597 -0.7874
 8371SOL    HW233256   2.703   2.104   3.596 -2.1031 -0.6546 -2.0295
 8371SOL    HW333257   2.640   2.203   3.500 -4.3371  0.5378  0.5476
 8371SOL    MW433258   2.671   2.184   3.579  0.2782 -0.0577 -0.4021
 8372SOL     OW33259   2.618   2.891   6.376 -0.7841 -0.4124 -0.7095
 8372SOL    HW233260   2.539   2.877   6.325 -1.9970  0.6245  0.7691
 8372SOL    HW333261   2.613   2.827   6.447 -0.0199 -0.6809 -0.8830
 8372SOL    MW433262   2.607   2.881   6.379 -0.2606  0.7503  0.2324
 8373SOL     OW33263   0.271   2.205   0.283 -0.3384  0.7295 -0.0705
 8373SOL    HW233264   0.339   2.273   0.288  0.6990 -0.3582  2.3160
 8373SOL    HW333265   0.202   2.236   0.342  0.1548 -0.2517  1.0561
 8373SOL    MW433266   0.271   2.218   0.292  0.0408 -0.0368  0.3172
 8374SOL     OW33267   2.492   3.521   6.110 -0.5946  0.4234  0.3902
 8374SOL    HW233268   2.543   3.580   6.166 -0.8569  2.0747 -1.0319
 8374SOL    HW333269   2.430   3.579   6.066 -1.6043 -1.1062 -0.2597
 8374SOL    MW433270   2.491   3.537   6.112  0.2780 -0.5400  0.4713
 8375SOL     OW33271   1.114   2.810   3.626 -0.5726 -0.2819  0.3571
 8375SOL    HW233272   1.193   2.791   3.575 -1.0434 -0.6553 -0.2458
 8375SOL    HW333273   1.043   2.805   3.562 -1.2730 -1.5933  1.2000
 8375SOL    MW433274   1.115   2.807   3.611  0.6126  0.7771  0.1501
 8376SOL     OW33275   5.233   4.902   1.346 -0.0137 -0.0512  0.4415
 8376SOL    HW233276   5.253   4.945   1.263 -0.5003  1.1190  0.9137
 8376SOL    HW333277   5.292   4.943   1.409 -0.6236  0.0758  0.9366
 8376SOL    MW433278   5.244   4.913   1.343 -0.1916 -0.0710 -0.8244
 8377SOL     OW33279   5.081  -0.013   6.331 -0.0882  0.0955  0.1021
 8377SOL    HW233280   5.113  -0.016   6.421 -0.7602  0.7778  0.3785
 8377SOL    HW333281   5.071   0.080   6.312  0.0743 -0.0415 -0.6945
 8377SOL    MW433282   5.084  -0.001   6.341  0.8886 -0.2043  0.0515
 8378SOL     OW33283   0.720   0.899   4.160 -0.4107 -0.4930  0.2940
 8378SOL    HW233284   0.699   0.862   4.246 -0.1480  0.2704  0.6919
 8378SOL    HW333285   0.711   0.825   4.100 -0.7866 -0.9917  0.9462
 8378SOL    MW433286   0.716   0.884   4.164  0.3310 -0.0828 -0.3821
 8379SOL     OW33287   3.076   2.549   5.365  0.0781  0.4050  0.1631
 8379SOL    HW233288   3.077   2.645   5.372  1.7267  0.3838  0.6291
 8379SOL    HW333289   2.983   2.526   5.370 -0.6829  2.1535 -3.0474
 8379SOL    MW433290   3.063   2.559   5.367  0.5631 -0.2334  0.3070
 8380SOL     OW33291   0.964   3.342   4.950  0.2418 -0.1399 -0.2655
 8380SOL    HW233292   0.942   3.250   4.965 -0.2373 -0.0642 -0.4645
 8380SOL    HW333293   0.938   3.358   4.859  1.6852 -0.1997 -0.7050
 8380SOL    MW433294   0.958   3.332   4.940  0.0449  0.0346  0.1266
 8381SOL     OW33295   1.206   6.303   1.416  0.3191  0.1818 -0.4022
 8381SOL    HW233296   1.175   6.217   1.387 -0.2033  0.1372  0.2620
 8381SOL    HW333297   1.135   6.337   1.471  1.1224  0.4205  0.5201
 8381SOL    MW433298   1.193   6.297   1.420  0.6784  0.2216  0.2693
 8382SOL     OW33299   1.512   4.140   0.448 -0.5298 -0.2367 -0.3406
 8382SOL    HW233300   1.419   4.149   0.427 -0.6948  0.6854  0.6732
 8382SOL    HW333301   1.557   4.166   0.368 -1.1108 -2.7267 -1.5721
 8382SOL    MW433302   1.506   4.145   0.435  0.1000  0.1584  0.1842
 8383SOL     OW33303   3.272   0.792   0.430 -0.0065  0.7059 -0.6067
 8383SOL    HW233304   3.194   0.799   0.375 -0.7966  1.3410  0.5394
 8383SOL    HW333305   3.307   0.705   0.412 -1.2438  0.2359 -0.8146
 8383SOL    MW433306   3.266   0.782   0.420 -0.7054 -0.4507 -0.0607
 8384SOL     OW33307   0.415   2.490   0.885  0.0053 -0.0686  0.4640
 8384SOL    HW233308   0.334   2.457   0.848 -0.3925  1.3633  0.0086
 8384SOL    HW333309   0.458   2.413   0.922 -1.5789 -0.8375  0.7641
 8384SOL    MW433310   0.410   2.476   0.885  0.4036  0.5226 -0.5058
 8385SOL     OW33311   1.904   4.892   1.285  0.3585 -0.5522  0.6616
 8385SOL    HW233312   1.982   4.947   1.278 -0.6411  1.2668  2.5626
 8385SOL    HW333313   1.936   4.808   1.318  1.7539 -0.6662 -0.9017
 8385SOL    MW433314   1.918   4.888   1.289  0.2297  0.4319  0.1714
 8386SOL     OW33315   1.982   2.556   4.329 -0.1978 -0.2262  0.0762
 8386SOL    HW233316   2.074   2.582   4.317 -0.2457 -0.3176 -0.5403
 8386SOL    HW333317   1.983   2.461   4.321  0.0480 -0.5118  2.8195
 8386SOL    MW433318   1.994   2.547   4.326  0.6852  0.0053 -0.4237
 8387SOL     OW33319   3.053   1.234   3.174 -0.0241  0.0340 -0.0408
 8387SOL    HW233320   3.070   1.189   3.091  1.4341 -0.1033  0.3136
 8387SOL    HW333321   2.960   1.216   3.191 -0.1473 -0.6212 -1.2240
 8387SOL    MW433322   3.043   1.225   3.165  0.4987 -0.1229 -0.2310
 8388SOL     OW33323   6.193   1.244   4.224 -0.0632 -0.4984  0.2947
 8388SOL    HW233324   6.280   1.259   4.186 -0.5869 -1.3656 -1.3699
 8388SOL    HW333325   6.204   1.263   4.317  1.6799  0.2858 -0.0227
 8388SOL    MW433326   6.206   1.248   4.231  0.6872  0.0944 -0.0995
 8389SOL     OW33327   4.138   3.314   2.050 -0.4064  0.4967  0.0106
 8389SOL    HW233328   4.139   3.405   2.021  0.9445  0.6362  0.4165
 8389SOL    HW333329   4.188   3.314   2.132  1.2206 -0.8813 -0.9162
 8389SOL    MW433330   4.145   3.326   2.057 -0.2485 -0.5173  0.3067
 8390SOL     OW33331   1.007   4.877   5.000  0.2648  0.2563 -0.1153
 8390SOL    HW233332   1.012   4.943   5.069  1.0279  1.4544 -1.2903
 8390SOL    HW333333   0.938   4.817   5.030  1.0898  0.2988  2.0438
 8390SOL    MW433334   0.999   4.877   5.013  0.4794 -0.1276 -0.1420
 8391SOL     OW33335   2.203   4.584   0.404 -0.1682  0.2116 -0.3605
 8391SOL    HW233336   2.187   4.616   0.493 -0.5617  0.5980 -0.5656
 8391SOL    HW333337   2.297   4.572   0.399 -0.0117  1.3298 -0.2657
 8391SOL    MW433338   2.213   4.587   0.415 -0.0093 -0.0074 -0.4676
 8392SOL     OW33339   2.773   4.447   4.813 -0.0949  0.1717 -0.5848
 8392SOL    HW233340   2.821   4.468   4.893  1.7919  1.4172 -1.9350
 8392SOL    HW333341   2.794   4.356   4.795  1.4942  0.5689 -0.9033
 8392SOL    MW433342   2.782   4.438   4.821 -0.1269  0.1271  0.2541
 8393SOL     OW33343   1.564   6.232   4.333 -0.4811 -0.4329  0.0377
 8393SOL    HW233344   1.521   6.298   4.279  0.9464  1.3045  0.9465
 8393SOL    HW333345   1.539   6.254   4.423 -0.5940 -1.6175  0.3227
 8393SOL    MW433346   1.555   6.244   4.338 -0.1058  0.7226 -0.2470
 8394SOL     OW33347   6.064   5.391   0.989 -0.0383  0.0247  0.2561
 8394SOL    HW233348   6.073   5.296   0.975 -2.3837 -0.1901 -0.2051
 8394SOL    HW333349   6.107   5.431   0.913  1.1080 -0.6217  0.5304
 8394SOL    MW433350   6.071   5.383   0.977  0.3397  0.3702  0.4432
 8395SOL     OW33351   3.222   1.298   5.359  0.2572 -0.0367 -0.0682
 8395SOL    HW233352   3.139   1.299   5.312  0.3125 -1.2801 -0.2181
 8395SOL    HW333353   3.199   1.322   5.449  0.0802  1.8395 -0.5560
 8395SOL    MW433354   3.208   1.301   5.365  0.2054 -0.2518  0.1607
 8396SOL     OW33355   4.639   1.222   1.548  0.4617 -0.3844 -0.8067
 8396SOL    HW233356   4.734   1.217   1.542  0.2963 -4.1230 -2.9284
 8396SOL    HW333357   4.616   1.300   1.498  2.3448  0.6324 -0.1942
 8396SOL    MW433358   4.648   1.232   1.541 -0.0364  0.0174  0.1845
 8397SOL     OW33359   5.836   3.877   5.344  0.6785 -0.5363  0.0377
 8397SOL    HW233360   5.745   3.906   5.336  1.0938  1.7890  2.3281
 8397SOL    HW333361   5.830   3.790   5.383 -0.5629 -0.8373 -0.7668
 8397SOL    MW433362   5.823   3.869   5.348 -0.2539  0.0247  0.1594
 8398SOL     OW33363   2.835   0.355   2.194 -0.2511 -0.0030 -0.1958
 8398SOL    HW233364   2.750   0.374   2.234  0.6475 -2.3747  3.2649
 8398SOL    HW333365   2.885   0.436   2.204 -1.1219  0.4553  0.5584
 8398SOL    MW433366   2.830   0.368   2.201 -0.2013 -0.4839  0.8187
 8399SOL     OW33367   5.010   4.948   3.104  0.3639 -0.7042 -0.3582
 8399SOL    HW233368   4.947   4.926   3.173  0.4183  0.7855  0.2112
 8399SOL    HW333369   4.969   4.916   3.024 -1.3112  0.5061 -0.0453
 8399SOL    MW433370   4.996   4.941   3.103  0.3226 -0.9277  0.6221
 8400SOL     OW33371   1.236   5.885   4.279  0.0230 -0.4164 -0.3981
 8400SOL    HW233372   1.317   5.878   4.330  0.4577 -2.7910 -1.2885
 8400SOL    HW333373   1.170   5.914   4.343  1.1055 -0.6344  0.8660
 8400SOL    MW433374   1.238   5.888   4.294 -0.3313  0.4639 -0.1046
 8401SOL     OW33375   3.296   0.224   1.353  0.4997  0.1040 -0.1278
 8401SOL    HW233376   3.294   0.209   1.448  0.2056  2.8206  0.3877
 8401SOL    HW333377   3.214   0.187   1.321 -0.8995  1.8232  1.2269
 8401SOL    MW433378   3.285   0.217   1.362 -0.5787  0.1324  0.0172
 8402SOL     OW33379   5.077   1.978   4.722  0.4744  0.0358 -0.2088
 8402SOL    HW233380   4.991   1.936   4.723  1.3607 -1.9069 -1.1609
 8402SOL    HW333381   5.132   1.920   4.774  1.3764  0.9306 -0.1417
 8402SOL    MW433382   5.073   1.965   4.729 -0.1656 -0.1447 -0.2207
 8403SOL     OW33383   5.094   4.375   0.272  0.2895 -0.0854 -0.2362
 8403SOL    HW233384   5.017   4.356   0.219 -0.4693  0.5757  0.6010
 8403SOL    HW333385   5.078   4.328   0.354 -0.6317  2.3337  1.0600
 8403SOL    MW433386   5.082   4.366   0.276 -0.0511  0.5197  0.3734
 8404SOL     OW33387   1.083   5.291   3.698  0.6740 -0.2967  0.1409
 8404SOL    HW233388   0.995   5.292   3.660  1.3682 -1.3283 -1.6196
 8404SOL    HW333389   1.123   5.211   3.663  1.7398 -0.7829  2.2991
 8404SOL    MW433390   1.077   5.280   3.689  0.0689 -0.1099 -0.2120
 8405SOL     OW33391   5.756   0.757   2.350 -0.0884 -0.4920 -0.0028
 8405SOL    HW233392   5.800   0.805   2.280 -0.5088 -0.0097  0.0545
 8405SOL    HW333393   5.764   0.665   2.325 -0.8916 -0.2882 -1.0880
 8405SOL    MW433394   5.763   0.752   2.338  0.3159  0.1078 -0.2579
 8406SOL     OW33395   6.334   3.859   1.996  0.1353 -0.3818 -0.1299
 8406SOL    HW233396   6.305   3.844   1.907 -2.4323  0.4301  0.5024
 8406SOL    HW333397   6.269   3.815   2.051  0.7525  0.5056  1.3938
 8406SOL    MW433398   6.322   3.851   1.992  0.4899 -0.1374  0.6075
 8407SOL     OW33399   4.949   5.153   1.086  0.1030 -0.0421 -0.2339
 8407SOL    HW233400   4.903   5.192   1.012 -1.4499 -2.3441 -0.5832
 8407SOL    HW333401   4.984   5.071   1.053 -0.6972 -1.1746  1.5632
 8407SOL    MW433402   4.948   5.147   1.072  0.5923 -0.1547  0.2395
 8408SOL     OW33403   0.433   3.586   1.066  0.5183 -0.1686 -0.2904
 8408SOL    HW233404   0.359   3.636   1.101  1.1093  0.3045  0.2903
 8408SOL    HW333405   0.431   3.504   1.114  1.0052  0.2662  0.4876
 8408SOL    MW433406   0.423   3.582   1.077  0.1998 -0.0246 -0.2303
 8409SOL     OW33407   2.171   6.370   6.255  0.2616  0.6911  0.3801
 8409SOL    HW233408   2.209   6.388   6.341 -0.7438  1.8245  0.6123
 8409SOL    HW333409   2.079   6.392   6.265 -0.3638 -1.3552 -0.3514
 8409SOL    MW433410   2.164   6.375   6.267 -0.0217  0.0005 -0.0345
 8410SOL     OW33411   5.666   1.348   5.951 -0.1230  0.2172  0.3016
 8410SOL    HW233412   5.656   1.435   5.913 -0.3403 -0.3488 -0.9830
 8410SOL    HW333413   5.701   1.295   5.880  1.5182 -0.4139  1.5145
 8410SOL    MW433414   5.669   1.353   5.937 -0.1359 -0.6316 -0.1871
 8411SOL     OW33415   2.607   4.302   1.987  0.3894  0.3849  0.9138
 8411SOL    HW233416   2.618   4.377   2.046 -0.0798  1.6165 -0.5042
 8411SOL    HW333417   2.520   4.268   2.008  0.1160  0.9755  0.7686
 8411SOL    MW433418   2.597   4.307   1.998  0.1698 -0.0750 -0.2117
 8412SOL     OW33419   2.218   5.595   2.256  0.0361  0.6062  0.4100
 8412SOL    HW233420   2.214   5.672   2.313 -1.7046  0.0262  1.1493
 8412SOL    HW333421   2.274   5.534   2.303 -0.6366  0.4868  1.0841
 8412SOL    MW433422   2.225   5.597   2.270 -0.5555 -0.1815  1.0196
 8413SOL     OW33423   4.726   3.669   0.819  0.3251 -0.0912 -0.3648
 8413SOL    HW233424   4.768   3.585   0.841 -1.2018 -1.0316 -0.9014
 8413SOL    HW333425   4.704   3.661   0.727 -0.1669  0.7703 -0.3308
 8413SOL    MW433426   4.729   3.657   0.810  0.4615  0.0874 -0.1195
 8414SOL     OW33427   1.305   1.289   2.981  0.3682 -0.9192 -0.1975
 8414SOL    HW233428   1.273   1.354   3.043 -0.3075 -1.0460 -0.4039
 8414SOL    HW333429   1.395   1.316   2.962  0.0636  0.0084 -0.3535
 8414SOL    MW433430   1.313   1.301   2.987 -0.0087  0.0782 -1.0171
 8415SOL     OW33431   2.648   4.772   3.627  0.0050  0.2206  0.3043
 8415SOL    HW233432   2.677   4.723   3.550 -0.3486  1.7343 -0.8502
 8415SOL    HW333433   2.708   4.745   3.696  2.0650  0.7663 -1.1628
 8415SOL    MW433434   2.659   4.762   3.626 -0.4736 -0.4202 -0.0501
 8416SOL     OW33435   2.067   5.423   4.980  0.8558 -0.4935  0.5939
 8416SOL    HW233436   2.124   5.474   5.038  1.2277 -1.6103  1.2275
 8416SOL    HW333437   2.028   5.357   5.037  1.6437 -1.9683 -0.5340
 8416SOL    MW433438   2.069   5.421   4.995  0.1315  0.3631 -1.1395
 8417SOL     OW33439   1.465   1.915   4.703  0.6162  0.1916  0.2236
 8417SOL    HW233440   1.382   1.923   4.749 -0.4665  1.4292 -1.8016
 8417SOL    HW333441   1.529   1.955   4.763 -0.1663 -0.9311  1.8816
 8417SOL    MW433442   1.463   1.921   4.717  0.1012  0.1001 -0.3194
 8418SOL     OW33443   0.632   3.928   3.680 -0.4843  0.4758 -0.4712
 8418SOL    HW233444   0.681   4.006   3.707  0.3952 -0.1572 -0.1984
 8418SOL    HW333445   0.603   3.889   3.762 -0.0537 -0.0315 -0.5602
 8418SOL    MW433446   0.635   3.933   3.694 -0.3264 -0.2826  0.4863
 8419SOL     OW33447   4.980   2.961   6.194 -0.1710  0.1007  0.3201
 8419SOL    HW233448   5.003   3.054   6.189 -2.0322  0.5270 -1.6682
 8419SOL    HW333449   4.942   2.951   6.282  1.2109  0.8695  1.0515
 8419SOL    MW433450   4.978   2.972   6.205 -0.4039 -0.2283  0.3325
 8420SOL     OW33451   3.790   1.607   4.456 -0.0541 -0.0282 -0.1184
 8420SOL    HW233452   3.757   1.697   4.450 -0.3677 -0.1525 -0.3024
 8420SOL    HW333453   3.876   1.616   4.497 -1.1318  0.1392  2.2780
 8420SOL    MW433454   3.797   1.620   4.460  0.2893  0.3776 -0.2362
 8421SOL     OW33455   3.807   3.671   2.707  0.4341 -0.7925  0.2857
 8421SOL    HW233456   3.867   3.706   2.641 -0.7003  0.3870 -0.1582
 8421SOL    HW333457   3.792   3.743   2.767 -1.3962 -0.6703 -0.2381
 8421SOL    MW433458   3.813   3.685   2.706  0.3005  0.1544 -0.6579
 8422SOL     OW33459   2.608   4.346   3.981  0.1765  0.3743 -0.5714
 8422SOL    HW233460   2.554   4.424   3.976 -0.6432 -0.1250  0.2331
 8422SOL    HW333461   2.546   4.274   3.994  0.8767 -0.4806 -1.7766
 8422SOL    MW433462   2.593   4.346   3.982 -0.1024 -0.2957  0.5467
 8423SOL     OW33463   1.923   4.843   4.140 -0.1975 -0.4135 -1.0562
 8423SOL    HW233464   1.998   4.864   4.196 -0.2425  1.3798 -1.6150
 8423SOL    HW333465   1.951   4.767   4.090  1.1911  0.1082 -1.1194
 8423SOL    MW433466   1.936   4.836   4.141  0.0902 -0.5639  0.0105
 8424SOL     OW33467   6.340   0.912   5.894 -0.1973  0.5037  0.0530
 8424SOL    HW233468   6.368   0.936   5.806 -0.9967  0.8377 -0.1170
 8424SOL    HW333469   6.291   0.988   5.926 -0.8284 -0.0224  0.3705
 8424SOL    MW433470   6.337   0.925   5.887  0.3575  0.1231  0.3071
 8425SOL     OW33471   5.883   1.279   4.742  0.7256  0.0404  0.1539
 8425SOL    HW233472   5.891   1.208   4.679 -0.5750  0.5282 -0.6068
 8425SOL    HW333473   5.953   1.340   4.718 -0.2548  0.6270 -1.4142
 8425SOL    MW433474   5.893   1.278   4.730  0.4327  0.8448 -0.0578
 8426SOL     OW33475   3.596   2.607   0.928 -0.0771  0.1670 -0.2766
 8426SOL    HW233476   3.669   2.555   0.962 -0.1665 -0.4525 -1.0051
 8426SOL    HW333477   3.571   2.663   1.001  0.5442 -0.2453  0.2712
 8426SOL    MW433478   3.602   2.608   0.942  0.1596  0.1575 -0.1806
 8427SOL     OW33479   5.987   4.114   4.306 -0.5236 -0.0524 -0.6422
 8427SOL    HW233480   6.065   4.144   4.353 -0.5820  1.2475 -1.3318
 8427SOL    HW333481   5.990   4.019   4.313  0.0394  0.0533  1.0675
 8427SOL    MW433482   5.998   4.105   4.313 -0.3288 -0.8605  0.3661
 8428SOL     OW33483   3.109   1.873   3.407 -0.1149  0.4206 -0.2061
 8428SOL    HW233484   3.163   1.809   3.361 -1.0402  1.0408 -2.2601
 8428SOL    HW333485   3.097   1.835   3.494 -2.0146 -3.1700 -1.7861
 8428SOL    MW433486   3.114   1.859   3.412  0.4148 -0.1325 -0.4255
 8429SOL     OW33487   4.565   1.877   5.484  0.0458  0.0741  0.3284
 8429SOL    HW233488   4.470   1.868   5.474  0.0996 -0.9019  0.6100
 8429SOL    HW333489   4.601   1.803   5.436  0.7191  0.9401 -0.5416
 8429SOL    MW433490   4.557   1.866   5.477  0.0373  0.1676  0.5292
 8430SOL     OW33491   0.298   1.296   2.183  0.1254 -0.2454 -0.0255
 8430SOL    HW233492   0.318   1.372   2.129 -0.3224 -0.7600 -0.9524
 8430SOL    HW333493   0.381   1.250   2.192  0.7223  1.0977  1.7905
 8430SOL    MW433494   0.311   1.300   2.177  0.5922  0.4417 -0.2597
 8431SOL     OW33495   3.306   1.304   6.391 -0.1011  0.7285 -0.1968
 8431SOL    HW233496   3.293   1.214   6.422  0.7385  0.3784 -0.8082
 8431SOL    HW333497   3.371   1.340   6.451 -1.2349  1.3222  0.7297
 8431SOL    MW433498   3.313   1.297   6.403  0.5970 -0.3175  0.4158
 8432SOL     OW33499   2.304   5.275   1.740 -0.7738  0.2184 -0.3260
 8432SOL    HW233500   2.301   5.370   1.728  0.7583  0.3317  0.0358
 8432SOL    HW333501   2.301   5.262   1.835  2.5425  0.1337 -0.1337
 8432SOL    MW433502   2.303   5.286   1.751  0.6009  0.3702 -0.4214
 8433SOL     OW33503   4.455   0.255   2.167  0.2321 -0.3534 -0.1439
 8433SOL    HW233504   4.386   0.320   2.181  0.6786  0.2287 -0.6015
 8433SOL    HW333505   4.516   0.297   2.106  0.0891 -1.5286 -1.1394
 8433SOL    MW433506   4.454   0.269   2.161 -0.0481  0.1034  0.3788
 8434SOL     OW33507   4.527   2.158   2.425 -0.4652 -0.3089  0.3106
 8434SOL    HW233508   4.468   2.095   2.384  0.2572 -0.9547  0.2375
 8434SOL    HW333509   4.487   2.243   2.408  0.2047 -0.4496 -2.4906
 8434SOL    MW433510   4.514   2.160   2.417  0.4158 -0.4152  0.0230
 8435SOL     OW33511   4.561   6.042   2.953  0.4999 -0.2674 -0.2644
 8435SOL    HW233512   4.610   6.124   2.946 -0.6869  0.3448 -1.9914
 8435SOL    HW333513   4.484   6.066   3.006  2.0111 -1.2742  2.6336
 8435SOL    MW433514   4.557   6.056   2.959 -0.5577  0.0265  0.5684
 8436SOL     OW33515   1.940   0.191   5.716 -0.1262 -0.2865  0.1596
 8436SOL    HW233516   2.014   0.159   5.767 -0.1675  0.4006  0.6736
 8436SOL    HW333517   1.946   0.146   5.632 -0.3596 -1.8555  0.9600
 8436SOL    MW433518   1.950   0.181   5.712  0.2350  0.4752  0.0759
 8437SOL     OW33519   3.907   4.320   2.580  0.0028  0.2701 -0.1732
 8437SOL    HW233520   3.858   4.401   2.599  0.1283  0.2541  0.2392
 8437SOL    HW333521   3.856   4.277   2.511 -1.6605 -0.6905  1.5515
 8437SOL    MW433522   3.893   4.325   2.574 -0.6499  0.8087 -0.1090
 8438SOL     OW33523   6.321   5.504   4.423  0.4231 -0.1033 -0.0224
 8438SOL    HW233524   6.283   5.565   4.486  0.5775 -0.0516  0.0204
 8438SOL    HW333525   6.414   5.498   4.447  0.5017 -0.0180 -0.2964
 8438SOL    MW433526   6.328   5.511   4.434  0.1519 -0.2391 -0.0619
 8439SOL     OW33527   4.980   2.836   0.215 -1.0163  0.2374 -0.3062
 8439SOL    HW233528   5.002   2.763   0.158  0.0684 -0.3875  0.8753
 8439SOL    HW333529   4.918   2.888   0.163 -1.9260 -1.5534 -1.1204
 8439SOL    MW433530   4.975   2.834   0.200 -0.3596 -0.4580 -0.6527
 8440SOL     OW33531   5.051   4.299   5.197 -0.0712 -0.3416  0.6429
 8440SOL    HW233532   4.958   4.321   5.188  0.4326  0.9103 -2.9582
 8440SOL    HW333533   5.064   4.223   5.141  1.0263 -0.7373  1.3953
 8440SOL    MW433534   5.040   4.292   5.188 -0.4667 -0.4628 -0.0217
 8441SOL     OW33535   2.042   4.580   3.350 -0.1695 -0.2841 -0.1524
 8441SOL    HW233536   2.070   4.580   3.442 -0.2549 -0.6745 -0.1239
 8441SOL    HW333537   1.947   4.579   3.354 -0.1881  0.3686 -0.2513
 8441SOL    MW433538   2.033   4.580   3.363  1.0611 -0.1672 -0.4025
 8442SOL     OW33539   1.306   3.103   0.661  0.2242  0.2657 -0.1568
 8442SOL    HW233540   1.343   3.187   0.689 -0.2345 -0.0578  1.5175
 8442SOL    HW333541   1.375   3.039   0.676  0.3646  0.2393 -0.8673
 8442SOL    MW433542   1.320   3.106   0.666  0.2620 -0.2540  0.2576
 8443SOL     OW33543   1.153   1.678   2.464 -0.1600 -0.9187 -0.2454
 8443SOL    HW233544   1.127   1.679   2.556  1.2944  2.9126  0.3314
 8443SOL    HW333545   1.080   1.721   2.419 -1.6807 -4.3243 -1.3467
 8443SOL    MW433546   1.140   1.684   2.470  0.5826  0.1612  0.0663
 8444SOL     OW33547   5.796   2.537   4.699 -0.1139 -0.1709  0.0409
 8444SOL    HW233548   5.839   2.540   4.614  0.0232  0.9084  0.1416
 8444SOL    HW333549   5.756   2.450   4.703 -0.7397  0.0295 -1.4197
 8444SOL    MW433550   5.796   2.526   4.688  0.5493 -0.4229  0.4674
 8445SOL     OW33551   4.129   0.116   1.720  0.3669  0.6237  0.3237
 8445SOL    HW233552   4.047   0.082   1.686  0.0781  3.0354 -1.6875
 8445SOL    HW333553   4.185   0.039   1.729 -1.2479 -0.7596 -0.8362
 8445SOL    MW433554   4.126   0.102   1.717  0.0483 -0.2979 -0.4758
 8446SOL     OW33555   5.643   1.782   1.768 -0.3742 -0.0171  0.2633
 8446SOL    HW233556   5.566   1.732   1.795 -0.7472  0.3396 -0.1224
 8446SOL    HW333557   5.683   1.728   1.699  0.6441 -0.9837  1.5417
 8446SOL    MW433558   5.638   1.768   1.762  0.0092  0.5092 -0.1442
 8447SOL     OW33559   5.241   3.256   0.914 -0.2547  0.3340 -0.5527
 8447SOL    HW233560   5.165   3.259   0.973  1.2117 -1.9625  1.6883
 8447SOL    HW333561   5.213   3.201   0.841 -1.3202  1.0929 -0.7287
 8447SOL    MW433562   5.227   3.249   0.912  0.2199  0.0194  0.1961
 8448SOL     OW33563   6.398   0.491   2.657 -0.1783  0.0011  0.1875
 8448SOL    HW233564   6.469   0.551   2.680 -1.9686  2.6327 -0.7575
 8448SOL    HW333565   6.333   0.501   2.726  0.5015 -2.8578  1.3909
 8448SOL    MW433566   6.399   0.500   2.669 -0.2073 -0.8427  0.1615
 8449SOL     OW33567   3.194   2.595   5.736 -0.2314  0.3928 -0.1176
 8449SOL    HW233568   3.236   2.645   5.667  1.5638 -1.1609 -0.2405
 8449SOL    HW333569   3.200   2.504   5.707 -3.0401  0.0011  0.2543
 8449SOL    MW433570   3.200   2.589   5.723 -0.7864 -0.3099  0.0846
 8450SOL     OW33571   2.240   2.235   2.829 -0.1469 -0.1455 -0.2398
 8450SOL    HW233572   2.171   2.170   2.838 -0.5183  0.2941  0.1329
 8450SOL    HW333573   2.228   2.272   2.742 -0.0571 -0.4322 -0.3746
 8450SOL    MW433574   2.230   2.231   2.819  0.0685 -0.0791 -0.3661
 8451SOL     OW33575   6.033   5.259   5.909  0.2256  0.1581 -0.6740
 8451SOL    HW233576   5.970   5.216   5.967 -0.9058  0.5344 -1.6092
 8451SOL    HW333577   6.095   5.189   5.886 -0.7989 -0.6510 -1.0632
 8451SOL    MW433578   6.033   5.244   5.914  0.1014  0.0758 -0.4891
 8452SOL     OW33579   3.100   1.553   1.396 -0.5604  0.8164  0.7012
 8452SOL    HW233580   3.077   1.522   1.484  0.5810  1.0931  1.1185
 8452SOL    HW333581   3.050   1.634   1.385 -0.1621  1.1649  1.3972
 8452SOL    MW433582   3.090   1.559   1.406 -0.7214  0.0459  0.9430
 8453SOL     OW33583   3.754   4.986   4.184 -0.1328  0.5822 -0.1506
 8453SOL    HW233584   3.810   5.025   4.117  0.7482 -1.9180 -0.9784
 8453SOL    HW333585   3.673   4.965   4.138  0.5592 -1.3520 -0.5536
 8453SOL    MW433586   3.751   4.989   4.169  0.1340 -0.1848 -0.6904
 8454SOL     OW33587   3.831   1.833   5.833 -0.5383  0.2303 -0.2062
 8454SOL    HW233588   3.797   1.788   5.755 -0.1772 -0.3885 -0.0144
 8454SOL    HW333589   3.775   1.910   5.842  0.3990  1.2066 -2.0221
 8454SOL    MW433590   3.819   1.838   5.824  0.5306 -0.1524  0.0067
 8455SOL     OW33591   0.478   5.208   5.416 -0.2190  0.0148  0.0895
 8455SOL    HW233592   0.447   5.233   5.328  1.6920  0.2364 -0.5666
 8455SOL    HW333593   0.399   5.209   5.470 -1.5593 -0.6377 -1.7261
 8455SOL    MW433594   0.464   5.211   5.411 -0.3862 -0.0411  0.0491
 8456SOL     OW33595   0.916   4.043   1.662 -0.5429  0.5047  0.4468
 8456SOL    HW233596   0.922   3.948   1.673 -2.3446  0.4604  1.4936
 8456SOL    HW333597   0.826   4.058   1.633  0.4898  1.7222 -2.3891
 8456SOL    MW433598   0.905   4.032   1.660  0.4138 -0.7650 -0.3306
 8457SOL     OW33599   2.016   0.705   2.197 -0.5536  0.5356  0.5468
 8457SOL    HW233600   1.985   0.650   2.125 -1.1142 -1.2138  2.0305
 8457SOL    HW333601   1.949   0.773   2.205 -0.7331  0.4670 -0.2774
 8457SOL    MW433602   2.003   0.706   2.189  0.2178  0.4541 -0.3550
 8458SOL     OW33603   0.565   1.934   2.134  0.2896  0.2845 -0.9548
 8458SOL    HW233604   0.515   1.988   2.073 -0.4951 -1.2370 -1.7243
 8458SOL    HW333605   0.498   1.885   2.183  0.8847  1.4774  1.2184
 8458SOL    MW433606   0.549   1.935   2.133  0.0817  0.2436 -0.4253
 8459SOL     OW33607   0.396   3.320   1.199  0.3709  0.4008 -0.3301
 8459SOL    HW233608   0.462   3.285   1.258 -1.3425 -1.9657  0.3654
 8459SOL    HW333609   0.408   3.271   1.118 -1.4357 -1.2895  0.3312
 8459SOL    MW433610   0.406   3.309   1.196  0.0699  0.0461  0.1193
 8460SOL     OW33611   5.417   5.916   1.643  0.4028  0.7372  0.2422
 8460SOL    HW233612   5.353   5.981   1.673  0.7246  0.9392  0.5014
 8460SOL    HW333613   5.479   5.908   1.716  0.2767  0.0252  0.2710
 8460SOL    MW433614   5.417   5.924   1.657  0.6810  0.7750  0.3640
 8461SOL     OW33615   2.723   0.139   3.579 -0.2932 -0.1822 -0.2434
 8461SOL    HW233616   2.723   0.213   3.639 -3.6379 -1.2609  1.3223
 8461SOL    HW333617   2.743   0.063   3.635 -2.2632 -1.0608 -0.6401
 8461SOL    MW433618   2.726   0.139   3.594 -0.0669 -0.0904 -0.1688
 8462SOL     OW33619   5.711   3.273   6.201  0.4408 -0.4157  0.1223
 8462SOL    HW233620   5.709   3.351   6.145  1.5442 -0.4975 -0.0484
 8462SOL    HW333621   5.712   3.200   6.140 -2.0114 -0.6587  0.2719
 8462SOL    MW433622   5.711   3.274   6.186  0.0210 -0.4165 -0.2486
 8463SOL     OW33623   3.176   3.793   4.783  0.0680 -0.0250 -0.4705
 8463SOL    HW233624   3.150   3.731   4.715 -0.7724 -0.3166  0.0938
 8463SOL    HW333625   3.151   3.879   4.748  0.9693 -0.0159 -1.1314
 8463SOL    MW433626   3.170   3.796   4.769  0.0844 -0.1621 -0.0984
 8464SOL     OW33627   5.253   2.444   1.431 -0.6880 -0.0655 -0.0368
 8464SOL    HW233628   5.320   2.418   1.494 -2.2343 -0.8008  1.3675
 8464SOL    HW333629   5.267   2.386   1.355  1.5699  1.2328 -0.7173
 8464SOL    MW433630   5.264   2.433   1.429 -0.1235  0.0063  0.0387
 8465SOL     OW33631   5.563   3.353   5.645 -0.3734  0.0580  0.3480
 8465SOL    HW233632   5.587   3.312   5.729 -0.7638 -0.1277  0.3702
 8465SOL    HW333633   5.550   3.280   5.586  0.5403  0.2103 -0.0560
 8465SOL    MW433634   5.565   3.338   5.648  0.8195 -0.1744  0.0746
 8466SOL     OW33635   6.391   2.861   2.004 -0.4582  0.2672  0.1190
 8466SOL    HW233636   6.485   2.878   1.998 -0.1074 -1.2911  0.6298
 8466SOL    HW333637   6.376   2.791   1.940 -0.7421 -1.3268  1.8480
 8466SOL    MW433638   6.401   2.854   1.995  0.0891 -0.0509 -0.0775
 8467SOL     OW33639   3.169   5.784   3.155 -0.7120 -0.6749  0.4483
 8467SOL    HW233640   3.188   5.752   3.066 -1.2171  1.1146 -0.3404
 8467SOL    HW333641   3.077   5.808   3.153  0.0626  2.8829  0.2320
 8467SOL    MW433642   3.159   5.783   3.143 -0.0060 -0.1297 -0.6337
 8468SOL     OW33643   0.889   3.784   4.744 -0.0873  0.7435 -0.3287
 8468SOL    HW233644   0.906   3.787   4.838 -1.4255  0.7843 -0.0574
 8468SOL    HW333645   0.798   3.755   4.738  0.7854 -2.0014 -1.7112
 8468SOL    MW433646   0.879   3.780   4.756  0.0417  0.1723 -0.1877
 8469SOL     OW33647   2.772   3.099   0.827 -0.1352 -0.0456  0.1987
 8469SOL    HW233648   2.852   3.087   0.777  0.9514  0.8221  1.6184
 8469SOL    HW333649   2.738   3.184   0.799  1.0886  0.9812  1.6267
 8469SOL    MW433650   2.778   3.109   0.817  0.3451 -0.2369  0.0911
 8470SOL     OW33651   4.288   6.222   5.201 -0.2753 -0.5873 -0.0622
 8470SOL    HW233652   4.367   6.170   5.219 -0.9709 -1.8449 -0.5173
 8470SOL    HW333653   4.219   6.157   5.192 -1.3789  0.5061  0.3664
 8470SOL    MW433654   4.290   6.207   5.202 -0.2702 -0.4330  0.5039
 8471SOL     OW33655   1.035   4.917   2.368  0.3829 -0.2033 -0.2948
 8471SOL    HW233656   1.063   4.831   2.400  1.0770  0.3568  0.6608
 8471SOL    HW333657   1.116   4.967   2.359 -0.1408  0.9048  0.8723
 8471SOL    MW433658   1.049   4.913   2.371  0.8875 -0.1348 -0.0293
 8472SOL     OW33659   2.890   1.578   2.328  0.5026  0.2756  0.0149
 8472SOL    HW233660   2.875   1.555   2.237  2.5918  1.9776 -0.8582
 8472SOL    HW333661   2.824   1.645   2.348 -0.1686 -0.3396 -0.1173
 8472SOL    MW433662   2.879   1.584   2.319  0.1488 -0.2939  0.2649
 8473SOL     OW33663   5.354   0.464   0.080  0.2627  0.1543 -0.0122
 8473SOL    HW233664   5.378   0.455  -0.012  0.4287  0.2776  0.0171
 8473SOL    HW333665   5.283   0.528   0.081 -0.7059 -0.8961 -0.1899
 8473SOL    MW433666   5.348   0.472   0.068  0.0948  0.2505  0.2281
 8474SOL     OW33667   1.636   2.104   0.041  0.3093  0.4848 -0.4102
 8474SOL    HW233668   1.692   2.179   0.060  1.1888  0.0504 -1.2291
 8474SOL    HW333669   1.607   2.117  -0.049  1.6556 -0.8768 -1.0721
 8474SOL    MW433670   1.639   2.115   0.032 -0.3608  0.8032 -0.3541
 8475SOL     OW33671   0.860   2.409   4.220 -0.4580  0.2142 -0.0607
 8475SOL    HW233672   0.930   2.408   4.155 -0.6471  2.0391 -0.3320
 8475SOL    HW333673   0.874   2.329   4.271 -0.1926 -1.1876 -2.1954
 8475SOL    MW433674   0.871   2.398   4.218  0.5216 -0.1777 -0.0788
 8476SOL     OW33675   4.411   3.636   0.319 -0.2162 -0.2116  0.2131
 8476SOL    HW233676   4.443   3.716   0.277 -2.6217  1.4290  1.2716
 8476SOL    HW333677   4.393   3.577   0.246  1.4141  0.2144 -0.6099
 8476SOL    MW433678   4.413   3.639   0.304  0.1706 -0.2870 -0.1841
 8477SOL     OW33679   5.980   2.059   5.387  0.1358 -0.5948  0.1554
 8477SOL    HW233680   5.946   1.970   5.385  2.3164 -1.4594 -0.1332
 8477SOL    HW333681   5.911   2.111   5.347  0.2448 -2.6749 -3.0543
 8477SOL    MW433682   5.966   2.054   5.382  0.1665  0.4642 -0.1024
 8478SOL     OW33683   5.795   1.072   2.925  0.1457  0.2823 -0.5733
 8478SOL    HW233684   5.802   1.110   2.837  2.3828  0.4739 -0.3637
 8478SOL    HW333685   5.790   1.148   2.983 -1.3846  0.1556 -0.4946
 8478SOL    MW433686   5.795   1.087   2.921 -0.5464  0.3425  0.1894
 8479SOL     OW33687   0.820   4.002   0.892  1.3197 -0.3105 -0.4079
 8479SOL    HW233688   0.849   4.017   0.802  1.8171  1.0392 -0.0396
 8479SOL    HW333689   0.899   3.980   0.940  0.9645 -1.6631 -0.4074
 8479SOL    MW433690   0.834   4.001   0.887 -0.5943 -0.5527 -0.0287
 8480SOL     OW33691   1.692   3.318   3.586 -0.2755  0.0818  0.1218
 8480SOL    HW233692   1.748   3.245   3.612  0.0222  1.5171  4.2349
 8480SOL    HW333693   1.605   3.280   3.576  0.0200 -1.0313  1.4553
 8480SOL    MW433694   1.688   3.303   3.588  0.6145 -0.4948 -0.1809
 8481SOL     OW33695   6.384   4.930   6.439 -0.4339  0.3179 -0.9669
 8481SOL    HW233696   6.405   4.857   6.380 -0.6691 -1.1077  0.6453
 8481SOL    HW333697   6.422   5.007   6.396  0.7877 -0.9135 -2.1939
 8481SOL    MW433698   6.392   4.931   6.425  0.0047 -0.0369 -0.3091
 8482SOL     OW33699   2.346   4.575   0.916 -0.4184 -0.0625  0.1160
 8482SOL    HW233700   2.404   4.503   0.943  1.3213  1.5836  1.0842
 8482SOL    HW333701   2.286   4.586   0.990 -0.2804 -0.1137  0.2370
 8482SOL    MW433702   2.346   4.567   0.929 -0.0997 -0.1305  0.1576
 8483SOL     OW33703   5.124   1.301   2.326  0.0869  0.8598  0.0983
 8483SOL    HW233704   5.109   1.218   2.370  0.5645  0.2686 -0.8222
 8483SOL    HW333705   5.083   1.292   2.240  1.3909  1.0007 -0.5815
 8483SOL    MW433706   5.117   1.289   2.320 -0.6752 -0.8347 -0.0687
 8484SOL     OW33707   2.693   1.797   1.888  0.0326 -0.2365  0.4301
 8484SOL    HW233708   2.663   1.731   1.950  1.0693 -0.7759  0.3795
 8484SOL    HW333709   2.732   1.865   1.943 -0.3158 -0.0486  0.4431
 8484SOL    MW433710   2.694   1.797   1.903  0.3882 -0.3038  0.2975
 8485SOL     OW33711   6.172   1.102   6.038 -0.0687  0.2373  0.2351
 8485SOL    HW233712   6.113   1.035   6.074  0.4161  0.0091  0.6224
 8485SOL    HW333713   6.120   1.146   5.971  0.2573 -1.9568 -1.5761
 8485SOL    MW433714   6.157   1.099   6.034 -0.8875  0.0956  0.5267
 8486SOL     OW33715   3.279   3.478   4.537 -0.1739  0.4751 -0.0587
 8486SOL    HW233716   3.357   3.503   4.587 -0.2957  1.0204 -0.1432
 8486SOL    HW333717   3.285   3.382   4.531  2.7793  0.6374 -3.6833
 8486SOL    MW433718   3.290   3.468   4.543  0.4859 -0.3178  0.0728
 8487SOL     OW33719   0.940   3.120   4.307  0.1748  0.0943 -0.0402
 8487SOL    HW233720   0.870   3.074   4.262 -0.4716  0.7076  0.3150
 8487SOL    HW333721   1.010   3.055   4.316 -0.4204 -0.5806 -0.2184
 8487SOL    MW433722   0.940   3.106   4.302  0.6121  0.2231 -0.1203
 8488SOL     OW33723   3.859   3.375   3.332 -0.3260  0.4490  0.1261
 8488SOL    HW233724   3.891   3.292   3.368  3.7184  1.8718  0.2861
 8488SOL    HW333725   3.845   3.431   3.409 -1.3091  0.5060 -0.0777
 8488SOL    MW433726   3.861   3.372   3.347 -0.1864 -0.3612 -0.0652
 8489SOL     OW33727   1.584   4.295   0.677  0.0469  0.2482  0.0428
 8489SOL    HW233728   1.563   4.224   0.617  0.1374 -1.4509  1.8978
 8489SOL    HW333729   1.657   4.341   0.636 -0.3092 -0.4579 -1.4280
 8489SOL    MW433730   1.591   4.291   0.664  0.0566 -0.2179  0.1122
 8490SOL     OW33731   1.056   5.950   5.703 -0.4161 -0.2905  0.4531
 8490SOL    HW233732   1.036   5.876   5.762  1.7563 -0.3200  1.2830
 8490SOL    HW333733   1.096   5.909   5.627 -0.0384 -0.0450  0.5149
 8490SOL    MW433734   1.059   5.934   5.701 -0.3057 -0.3654 -0.2268
 8491SOL     OW33735   6.318   4.064   0.787  0.4649 -0.6732 -0.3369
 8491SOL    HW233736   6.234   4.107   0.796 -0.4943 -2.3152 -1.0016
 8491SOL    HW333737   6.355   4.099   0.706 -0.0039 -0.6387 -0.5350
 8491SOL    MW433738   6.312   4.074   0.778  0.0862  1.2710 -0.3220
 8492SOL     OW33739   0.524   1.551   4.225 -0.3249  0.0185  0.1025
 8492SOL    HW233740   0.533   1.640   4.260  0.4512 -0.4613  1.1819
 8492SOL    HW333741   0.540   1.494   4.300 -3.2804 -1.0657  0.0269
 8492SOL    MW433742   0.527   1.556   4.239  0.9038 -0.7986 -0.2606
 8493SOL     OW33743   1.818   6.087   5.752 -0.5152 -0.0646 -0.2131
 8493SOL    HW233744   1.745   6.128   5.800 -0.1806  0.3994 -0.0930
 8493SOL    HW333745   1.806   6.114   5.661  0.4810  1.4747  0.0795
 8493SOL    MW433746   1.806   6.096   5.747  0.0311 -0.1832 -0.0221
 8494SOL     OW33747   5.181   1.555   5.056  0.6910 -0.5781 -0.5197
 8494SOL    HW233748   5.207   1.491   4.989 -0.0408  1.1918 -2.6156
 8494SOL    HW333749   5.089   1.536   5.073  1.3241 -2.2406  1.5300
 8494SOL    MW433750   5.173   1.544   5.049 -0.0204 -0.4536  0.3097
 8495SOL     OW33751   2.930   5.406   2.617  0.1280  0.0692 -0.5435
 8495SOL    HW233752   2.893   5.455   2.543 -1.0481  0.1273  0.0512
 8495SOL    HW333753   2.901   5.455   2.694  0.2055 -0.7348  0.0016
 8495SOL    MW433754   2.921   5.419   2.617  0.5376 -0.0448  0.9297
 8496SOL     OW33755   2.480   1.940   3.288 -0.1000 -0.3897  0.0908
 8496SOL    HW233756   2.492   1.853   3.327 -0.3620 -0.0047  1.0367
 8496SOL    HW333757   2.401   1.930   3.233  1.1155 -1.3346 -1.5829
 8496SOL    MW433758   2.471   1.927   3.286  0.3477 -0.1893  0.1319
 8497SOL     OW33759   3.355   2.740   5.555 -0.3119 -0.0869  0.2254
 8497SOL    HW233760   3.420   2.674   5.530  1.1009  1.3105  0.0179
 8497SOL    HW333761   3.403   2.823   5.550 -2.3298  1.0914 -0.6698
 8497SOL    MW433762   3.370   2.742   5.551  0.1649 -0.0881  0.1152
 8498SOL     OW33763   2.075   5.756   5.369 -0.0425 -0.4719  0.2181
 8498SOL    HW233764   2.036   5.714   5.446 -2.9039  0.8076 -0.3803
 8498SOL    HW333765   2.099   5.844   5.398 -0.5734 -0.1916 -0.1576
 8498SOL    MW433766   2.073   5.762   5.383  0.1827  0.1245 -0.2209
 8499SOL     OW33767   5.288   3.500   4.599  0.0340  0.0728 -0.1650
 8499SOL    HW233768   5.321   3.412   4.619  0.9118  0.7440  1.5937
 8499SOL    HW333769   5.341   3.528   4.524 -0.2524 -0.8905 -0.7391
 8499SOL    MW433770   5.300   3.492   4.592  0.1511  0.2042 -0.1707
 8500SOL     OW33771   5.921   6.332   5.028 -0.1120 -0.2897 -0.6075
 8500SOL    HW233772   5.978   6.350   5.103 -0.7741 -0.2513 -0.1016
 8500SOL    HW333773   5.913   6.237   5.027 -0.7696 -0.2538 -0.1017
 8500SOL    MW433774   5.927   6.322   5.038  0.3860 -0.7364 -0.5329
 8501SOL     OW33775   3.750   0.499   2.661 -0.4118  0.1679  0.0420
 8501SOL    HW233776   3.778   0.414   2.696  1.3581  0.8725  0.4818
 8501SOL    HW333777   3.717   0.547   2.737 -0.6840  0.1418 -0.0606
 8501SOL    MW433778   3.750   0.494   2.676  0.5391 -0.2974  0.1443
 8502SOL     OW33779   2.652   3.773   3.149 -0.7775  0.6320 -0.4717
 8502SOL    HW233780   2.562   3.779   3.183  0.3705  1.2150  2.7695
 8502SOL    HW333781   2.659   3.683   3.116 -1.8114 -0.3321  1.7228
 8502SOL    MW433782   2.641   3.762   3.149 -0.0462  0.6178  0.3013
 8503SOL     OW33783   6.028   0.324   1.543 -0.0175  0.1607 -0.2483
 8503SOL    HW233784   6.070   0.407   1.520 -0.7835  0.8914  0.9179
 8503SOL    HW333785   5.936   0.337   1.523  0.0201 -0.8662 -1.2309
 8503SOL    MW433786   6.022   0.337   1.537 -0.0204  0.6538 -0.1818
 8504SOL     OW33787   3.131   0.126   5.667 -0.0068 -0.3167  0.3542
 8504SOL    HW233788   3.080   0.177   5.730  0.9362 -1.2342  1.9068
 8504SOL    HW333789   3.177   0.192   5.615 -2.4436  0.5325 -0.8937
 8504SOL    MW433790   3.130   0.141   5.668  0.1553  0.7995  0.4429
 8505SOL     OW33791   2.731   1.565   4.759  0.0031 -0.4480 -0.3701
 8505SOL    HW233792   2.717   1.587   4.667  0.5314 -1.2780 -0.6533
 8505SOL    HW333793   2.675   1.488   4.774 -1.6341  0.8580  0.5432
 8505SOL    MW433794   2.721   1.558   4.749 -0.0506  0.1363 -0.9018
 8506SOL     OW33795   5.373   4.126   1.608 -0.2208 -0.1199 -0.2596
 8506SOL    HW233796   5.334   4.084   1.532 -0.8391 -0.1200  0.0507
 8506SOL    HW333797   5.386   4.217   1.582 -0.9488  0.0075 -0.1757
 8506SOL    MW433798   5.370   4.132   1.595  0.6504  0.0578  0.3106
 8507SOL     OW33799   2.430   1.268   0.363 -0.3753 -0.4525  0.1120
 8507SOL    HW233800   2.403   1.194   0.417 -1.0206 -0.3751 -0.0978
 8507SOL    HW333801   2.495   1.232   0.303 -1.2074 -1.0105 -0.4645
 8507SOL    MW433802   2.435   1.253   0.362 -0.6323 -0.6086 -0.4167
 8508SOL     OW33803   2.510   5.537   1.734 -0.6553  0.2683  0.1927
 8508SOL    HW233804   2.497   5.539   1.828  0.1047  0.7797  0.2985
 8508SOL    HW333805   2.462   5.614   1.701 -0.2320  0.5690  0.2656
 8508SOL    MW433806   2.502   5.548   1.742  0.0628 -0.0292 -0.1058
 8509SOL     OW33807   5.483   4.123   0.684  0.0257 -0.1662  0.3269
 8509SOL    HW233808   5.512   4.162   0.767  0.2986 -0.5367  0.4087
 8509SOL    HW333809   5.532   4.041   0.678 -1.1161 -0.8847  0.5384
 8509SOL    MW433810   5.494   4.117   0.694 -0.8322  1.0211  0.5105
 8510SOL     OW33811   2.078   3.054   0.094 -0.0700 -0.4199 -0.1777
 8510SOL    HW233812   2.172   3.059   0.113 -0.3509  1.9890  1.0709
 8510SOL    HW333813   2.039   3.029   0.178 -0.6647  0.7171 -0.0965
 8510SOL    MW433814   2.085   3.052   0.108  0.7787 -0.2631 -0.7863
 8511SOL     OW33815   5.901   4.360   1.544 -0.1366  0.0783 -0.8967
 8511SOL    HW233816   5.851   4.382   1.623 -0.7409 -0.8647 -1.0016
 8511SOL    HW333817   5.834   4.351   1.476  0.1961 -0.9559 -1.0936
 8511SOL    MW433818   5.885   4.362   1.546  0.1752 -0.7678 -0.1156
 8512SOL     OW33819   4.737   3.405   4.482  0.7961 -0.3092  0.1626
 8512SOL    HW233820   4.766   3.345   4.414  2.0421  0.9131 -0.4285
 8512SOL    HW333821   4.810   3.408   4.544  1.1286  1.2664 -0.2817
 8512SOL    MW433822   4.750   3.397   4.481 -0.0082 -0.3201 -0.4094
 8513SOL     OW33823   3.436   2.816   4.612  1.1217  0.0560  0.3848
 8513SOL    HW233824   3.477   2.763   4.680  1.6756  0.5456  0.4456
 8513SOL    HW333825   3.470   2.905   4.627  0.8210  0.2769 -0.1896
 8513SOL    MW433826   3.446   2.821   4.623 -0.0577  0.3320  0.3103
 8514SOL     OW33827   5.801   4.933   2.776 -0.3189 -0.6734 -0.4617
 8514SOL    HW233828   5.711   4.912   2.749 -0.6594  0.5222 -0.3144
 8514SOL    HW333829   5.815   5.022   2.745  1.1435 -1.1499 -1.2364
 8514SOL    MW433830   5.791   4.942   2.769 -0.6847 -0.3830  0.0636
 8515SOL     OW33831   3.296   3.900   1.626  0.1307  0.5761 -0.1878
 8515SOL    HW233832   3.267   3.809   1.638 -1.4159  1.0153 -0.3403
 8515SOL    HW333833   3.231   3.938   1.567 -0.2067  2.2353  1.1661
 8515SOL    MW433834   3.283   3.893   1.620 -0.4296 -0.2978 -0.2754
 8516SOL     OW33835   4.396   5.308   3.869  0.7947 -0.2456 -0.1880
 8516SOL    HW233836   4.416   5.228   3.822  1.2899 -0.0134 -0.3708
 8516SOL    HW333837   4.300   5.313   3.868  0.7803 -0.5797 -0.5956
 8516SOL    MW433838   4.386   5.298   3.863 -0.4823  0.2382 -0.2613
 8517SOL     OW33839   1.238   3.956   3.392 -0.0912  0.3691 -0.6453
 8517SOL    HW233840   1.232   3.968   3.298 -0.7852 -0.7861 -0.7599
 8517SOL    HW333841   1.264   3.864   3.404 -0.3967  0.3905  0.2893
 8517SOL    MW433842   1.241   3.945   3.381 -0.0891  0.4939  0.1844
 8518SOL     OW33843   0.103   1.653   5.237  0.3317 -0.4209  0.0999
 8518SOL    HW233844   0.136   1.588   5.298  0.3725 -1.1137 -0.6494
 8518SOL    HW333845   0.164   1.727   5.246 -0.1319 -0.1702  1.4771
 8518SOL    MW433846   0.115   1.654   5.246  0.3778  0.1905  0.2576
 8519SOL     OW33847   5.609   2.207   4.352  0.0400 -0.4301 -0.0607
 8519SOL    HW233848   5.534   2.148   4.345 -0.4134  0.0929  0.2792
 8519SOL    HW333849   5.664   2.184   4.278 -0.0802 -1.3418  0.1234
 8519SOL    MW433850   5.606   2.196   4.341  0.1936  0.0946  0.3121
 8520SOL     OW33851   2.654   6.313   4.246 -0.1402 -0.5157 -0.2521
 8520SOL    HW233852   2.559   6.321   4.248 -0.0702  0.9671 -1.4680
 8520SOL    HW333853   2.670   6.221   4.270 -1.8330 -0.7107  0.3038
 8520SOL    MW433854   2.644   6.302   4.250  0.0286 -0.2957  0.0227
 8521SOL     OW33855   0.344   5.406   5.627  0.4545  0.4894 -0.2706
 8521SOL    HW233856   0.416   5.417   5.689  0.4060  0.2566 -0.1732
 8521SOL    HW333857   0.290   5.336   5.665 -0.7649  1.8182  0.5513
 8521SOL    MW433858   0.346   5.398   5.640 -0.2560 -0.9497  0.1888
 8522SOL     OW33859   4.124   5.780   0.917  0.3049  0.6144 -0.1600
 8522SOL    HW233860   4.079   5.780   1.001 -0.1437  2.3741 -0.3499
 8522SOL    HW333861   4.193   5.715   0.926  0.1698  0.6736  1.5282
 8522SOL    MW433862   4.127   5.772   0.929 -0.0201 -0.4158  0.0600
 8523SOL     OW33863   1.941   4.676   2.821 -0.1535 -0.3633 -0.5409
 8523SOL    HW233864   2.010   4.633   2.770 -0.3099 -0.8034 -0.3866
 8523SOL    HW333865   1.952   4.769   2.802  0.0452 -0.4883 -1.0620
 8523SOL    MW433866   1.952   4.683   2.812  0.0256  0.2431  0.1489
 8524SOL     OW33867   1.415   5.562   4.348 -0.3253 -0.1058  0.2952
 8524SOL    HW233868   1.501   5.522   4.357 -0.4540 -0.5192 -0.3137
 8524SOL    HW333869   1.362   5.497   4.303 -0.6188  0.6184 -0.4409
 8524SOL    MW433870   1.419   5.548   4.343  0.0932  0.5113  0.1133
 8525SOL     OW33871   0.270   5.595   1.446 -0.5104  0.4126  0.3637
 8525SOL    HW233872   0.185   5.628   1.417 -0.3031  1.5432  0.9679
 8525SOL    HW333873   0.252   5.552   1.530 -0.6025  0.0023  0.1328
 8525SOL    MW433874   0.257   5.593   1.454 -0.2641  0.3321 -0.8135
 8526SOL     OW33875   4.730   4.483   5.723 -0.2012  0.6267  0.0582
 8526SOL    HW233876   4.784   4.512   5.796 -0.1174  1.2627 -0.2491
 8526SOL    HW333877   4.662   4.428   5.764 -0.1484  0.9648  0.6097
 8526SOL    MW433878   4.728   4.479   5.738 -0.1210 -0.4646  0.1936
 8527SOL     OW33879   5.394   6.143   0.094 -0.2070 -0.5009  0.4270
 8527SOL    HW233880   5.481   6.108   0.114  0.2419 -1.6544 -2.8145
 8527SOL    HW333881   5.334   6.074   0.121  0.2030 -1.1654 -0.2848
 8527SOL    MW433882   5.398   6.129   0.100 -0.0698  0.2089  0.5871
 8528SOL     OW33883   3.632   5.581   2.036 -0.0396  0.5099  0.3135
 8528SOL    HW233884   3.548   5.597   2.079 -0.6322 -1.0563 -0.1832
 8528SOL    HW333885   3.613   5.591   1.942 -0.3757 -2.3647 -0.0168
 8528SOL    MW433886   3.618   5.584   2.029 -0.7077 -0.1698  0.1077
 8529SOL     OW33887   0.469   0.127   1.770 -0.4579 -0.7344  0.0270
 8529SOL    HW233888   0.387   0.172   1.748 -0.0748  0.8328  1.5136
 8529SOL    HW333889   0.462   0.110   1.864  1.4421  0.6584  0.4792
 8529SOL    MW433890   0.457   0.131   1.780 -0.3382  0.6544 -0.3351
 8530SOL     OW33891   6.129   1.890   2.165  0.6769 -0.0735  0.1380
 8530SOL    HW233892   6.099   1.833   2.236  0.8065  0.6162  0.7470
 8530SOL    HW333893   6.209   1.931   2.198 -0.6445  2.2659  0.6500
 8530SOL    MW433894   6.136   1.888   2.179  0.4591  0.6315 -0.4677
 8531SOL     OW33895   5.696   3.293   2.445  0.3505  0.3222 -0.2795
 8531SOL    HW233896   5.600   3.292   2.448  0.3439  0.0665 -0.4928
 8531SOL    HW333897   5.724   3.291   2.536  0.1490  2.1719 -0.1382
 8531SOL    MW433898   5.687   3.293   2.457  0.2704 -0.0563 -0.1833
 8532SOL     OW33899   2.620   0.801   2.280  0.5892 -0.2633  0.1082
 8532SOL    HW233900   2.638   0.882   2.233  0.5903 -0.3417 -0.0278
 8532SOL    HW333901   2.578   0.829   2.361  0.6809 -0.1208  0.1063
 8532SOL    MW433902   2.617   0.815   2.284  0.0741  0.0132  0.4994
 8533SOL     OW33903   4.719   3.681   4.429  0.2720  0.3175  0.2509
 8533SOL    HW233904   4.743   3.589   4.442 -0.6163  0.2364  1.4887
 8533SOL    HW333905   4.790   3.730   4.472  0.9720  0.2460 -0.7856
 8533SOL    MW433906   4.732   3.676   4.437 -0.2257  0.6848  0.0545
 8534SOL     OW33907   4.087   2.269   5.406 -0.3874 -0.2585 -0.7021
 8534SOL    HW233908   4.118   2.213   5.477  1.8993  0.1802 -1.2746
 8534SOL    HW333909   4.089   2.212   5.329 -1.2733 -0.2896 -0.7033
 8534SOL    MW433910   4.092   2.254   5.405  0.0996 -0.3511  0.2552
 8535SOL     OW33911   3.551   1.619   5.229  0.0348 -0.3173 -0.5055
 8535SOL    HW233912   3.571   1.564   5.304 -0.0153  1.4653  0.8842
 8535SOL    HW333913   3.462   1.594   5.204  0.8221 -2.4646 -1.4540
 8535SOL    MW433914   3.542   1.608   5.235  0.2504  0.4493 -0.1098
 8536SOL     OW33915   0.377   4.837   4.667 -0.5884  0.3101 -0.0233
 8536SOL    HW233916   0.376   4.834   4.762  3.2013  2.3915  0.3034
 8536SOL    HW333917   0.444   4.774   4.641  0.3063  1.6136 -1.0421
 8536SOL    MW433918   0.386   4.829   4.676  0.4321  0.3199 -0.8493
 8537SOL     OW33919   3.387   5.613   2.229 -0.0185  0.0483 -0.4871
 8537SOL    HW233920   3.414   5.539   2.283  0.9135  1.6858  1.4403
 8537SOL    HW333921   3.441   5.686   2.260 -0.4321  1.4143 -2.7486
 8537SOL    MW433922   3.398   5.613   2.240  0.0038  0.1226 -0.0035
 8538SOL     OW33923   4.159   3.051   0.139  0.6653 -0.5346 -0.0817
 8538SOL    HW233924   4.205   2.995   0.076 -0.4202  0.2339 -1.6354
 8538SOL    HW333925   4.226   3.111   0.171  1.2116 -0.8347 -0.6421
 8538SOL    MW433926   4.174   3.052   0.135 -0.2088 -0.0241 -0.2640
 8539SOL     OW33927   1.815   5.426   4.169  0.3523 -0.6570 -0.2626
 8539SOL    HW233928   1.842   5.507   4.126  0.8133  0.0560  1.3130
 8539SOL    HW333929   1.894   5.394   4.212 -0.0792 -1.3686  0.0091
 8539SOL    MW433930   1.829   5.433   4.169 -0.0506 -0.7352  0.6247
 8540SOL     OW33931   2.641   2.865   0.773 -0.5001  0.0375 -0.1307
 8540SOL    HW233932   2.681   2.943   0.811 -0.7790  0.1781 -0.1222
 8540SOL    HW333933   2.701   2.838   0.703  0.7289 -1.0196  1.2705
 8540SOL    MW433934   2.654   2.871   0.769  0.0613  0.3669  0.1349
 8541SOL     OW33935   4.339   3.288   4.139 -0.2637  0.4540 -0.3247
 8541SOL    HW233936   4.380   3.273   4.054  0.9734  0.2239  0.2931
 8541SOL    HW333937   4.324   3.200   4.174 -0.4389  0.5561 -0.1419
 8541SOL    MW433938   4.342   3.274   4.132  0.9890 -0.0564  0.1388
 8542SOL     OW33939   2.231   1.096   1.151 -0.1945  0.1698 -0.0846
 8542SOL    HW233940   2.309   1.138   1.186  0.0590 -0.8397  0.6125
 8542SOL    HW333941   2.218   1.019   1.206 -2.2436  0.8161  0.4386
 8542SOL    MW433942   2.240   1.091   1.163 -0.0328 -0.8239 -0.5781
 8543SOL     OW33943   3.072   4.489   0.535 -0.7018  0.0652 -0.3185
 8543SOL    HW233944   3.164   4.517   0.527 -0.8731  1.3550  1.4363
 8543SOL    HW333945   3.064   4.415   0.475  1.1244  0.7710 -1.5322
 8543SOL    MW433946   3.083   4.483   0.526  0.1762 -0.3931 -0.6071
 8544SOL     OW33947   0.550   5.245   4.037 -0.0290 -0.3733 -0.6955
 8544SOL    HW233948   0.513   5.178   4.095  0.5169  0.6199  0.8738
 8544SOL    HW333949   0.644   5.242   4.054  0.0981  0.1719 -1.2824
 8544SOL    MW433950   0.557   5.236   4.047  0.0953  0.4494 -0.0272
 8545SOL     OW33951   5.315   2.011   6.160  0.3277 -0.3589 -0.3953
 8545SOL    HW233952   5.312   1.993   6.254  3.0263  0.8117 -0.0127
 8545SOL    HW333953   5.305   1.925   6.119 -1.6459 -0.8110  0.8764
 8545SOL    MW433954   5.313   1.997   6.167 -0.4164  0.1885  0.0657
 8546SOL     OW33955   1.343   5.620   0.274  0.0287  0.2752 -0.7158
 8546SOL    HW233956   1.377   5.575   0.197 -0.6207 -0.4075 -0.6191
 8546SOL    HW333957   1.248   5.616   0.264 -0.0505  1.4181 -0.5725
 8546SOL    MW433958   1.335   5.614   0.263  0.2900 -0.1416  0.2420
 8547SOL     OW33959   3.391   2.378   1.485 -0.2287 -0.5599  0.2906
 8547SOL    HW233960   3.439   2.320   1.426 -0.3128 -0.9106  0.5633
 8547SOL    HW333961   3.451   2.450   1.503 -0.1779 -0.4863 -0.1668
 8547SOL    MW433962   3.405   2.380   1.480 -0.2042 -0.2121  0.4736
 8548SOL     OW33963   4.341   0.247   3.900  0.5496 -0.1772 -0.6155
 8548SOL    HW233964   4.277   0.253   3.971  1.0206  0.6356 -0.2479
 8548SOL    HW333965   4.351   0.336   3.868  2.8619  0.0764  0.5771
 8548SOL    MW433966   4.334   0.259   3.905  0.3909 -0.0444 -0.0615
 8549SOL     OW33967   3.581   2.444   2.549  0.1985  0.2507  0.0112
 8549SOL    HW233968   3.634   2.383   2.497 -1.6327 -0.5132 -1.0539
 8549SOL    HW333969   3.592   2.413   2.639  0.8176 -0.4537 -0.2888
 8549SOL    MW433970   3.590   2.432   2.554 -0.4309 -0.0364 -0.5768
 8550SOL     OW33971   2.240   3.607   4.978  0.9418 -0.2751  0.4549
 8550SOL    HW233972   2.180   3.558   4.922 -0.3237 -0.5656  1.9677
 8550SOL    HW333973   2.295   3.540   5.019  0.4486 -0.2957  1.1161
 8550SOL    MW433974   2.239   3.592   4.976 -0.7256 -0.2825 -0.1717
 8551SOL     OW33975   6.126   1.314   4.519 -0.2492  0.2259  0.9609
 8551SOL    HW233976   6.131   1.228   4.560  0.3073  0.2309  0.9113
 8551SOL    HW333977   6.214   1.351   4.529 -0.8056  1.3172  2.0955
 8551SOL    MW433978   6.138   1.308   4.526 -0.2350  0.4472  0.2708
 8552SOL     OW33979   3.654   5.653   4.769 -0.1326  0.0175 -0.0948
 8552SOL    HW233980   3.559   5.665   4.779  0.0025  1.1885 -0.0404
 8552SOL    HW333981   3.677   5.705   4.693  0.5993  0.4776  0.4269
 8552SOL    MW433982   3.644   5.661   4.760  0.3006  0.3943 -0.2181
 8553SOL     OW33983   0.914   5.420   4.506  0.0233  0.4902  0.0249
 8553SOL    HW233984   0.971   5.493   4.528  1.5914 -0.5127 -0.5271
 8553SOL    HW333985   0.955   5.380   4.430 -0.8943 -0.8660  0.2078
 8553SOL    MW433986   0.927   5.424   4.499 -0.2591 -0.5507  0.0579
 8554SOL     OW33987   1.818   3.260   3.960  0.3962  0.8504  0.1400
 8554SOL    HW233988   1.731   3.270   3.919 -0.9846 -1.1627  2.3241
 8554SOL    HW333989   1.831   3.341   4.008 -0.0035  1.3965 -0.6444
 8554SOL    MW433990   1.808   3.272   3.961  0.2398 -0.6211 -0.3987
 8555SOL     OW33991   1.904   2.529   0.351  0.6155 -0.1045 -0.1561
 8555SOL    HW233992   1.820   2.509   0.310  0.1721 -0.4174  0.8680
 8555SOL    HW333993   1.935   2.608   0.307 -0.2944  0.0957 -0.4403
 8555SOL    MW433994   1.897   2.537   0.340 -0.5149  0.7514 -0.4493
 8556SOL     OW33995   0.712   2.220   2.500  0.2040 -0.1797 -0.2890
 8556SOL    HW233996   0.794   2.268   2.515 -1.4256  2.7062  0.0898
 8556SOL    HW333997   0.679   2.202   2.588 -0.9367  1.3426 -0.3580
 8556SOL    MW433998   0.719   2.224   2.514  0.3157  0.6550 -0.2164
 8557SOL     OW33999   4.964   1.264   1.013 -0.2775 -0.1835 -0.3812
 8557SOL    HW234000   4.892   1.225   1.063  0.9632 -2.9745 -0.6342
 8557SOL    HW334001   5.032   1.280   1.078  0.7828 -2.4515 -0.8494
 8557SOL    MW434002   4.963   1.261   1.028 -0.3470 -0.4574 -0.4533
 8558SOL     OW34003   0.875   3.858   3.997 -0.1956 -0.4921  0.0944
 8558SOL    HW234004   0.781   3.854   3.977 -0.1910  0.1113 -0.0916
 8558SOL    HW334005   0.882   3.929   4.061  0.4584  1.5285 -2.0786
 8558SOL    MW434006   0.864   3.867   4.003  0.2473  0.5998 -0.3075
 8559SOL     OW34007   4.878   5.793   4.157  0.3512  0.2081 -0.4367
 8559SOL    HW234008   4.882   5.841   4.239 -0.7828 -0.4319  0.0116
 8559SOL    HW334009   4.923   5.710   4.176 -0.4461 -0.1944 -0.2647
 8559SOL    MW434010   4.885   5.788   4.170  0.3988  0.3842  0.2075
 8560SOL     OW34011   4.177   5.507   1.872 -0.1873  0.9748  0.1788
 8560SOL    HW234012   4.139   5.492   1.959  0.1668  1.3680  0.4056
 8560SOL    HW334013   4.258   5.457   1.871 -0.2398  0.8908  0.0357
 8560SOL    MW434014   4.182   5.499   1.883 -0.4838  0.1898  0.2981
 8561SOL     OW34015   5.531   4.563   3.123  0.9299 -0.2337  0.3496
 8561SOL    HW234016   5.528   4.645   3.171  3.6877 -1.0284  2.1595
 8561SOL    HW334017   5.465   4.507   3.165  1.2123  0.0711  1.2145
 8561SOL    MW434018   5.522   4.566   3.135  0.5611 -0.1102 -0.2983
 8562SOL     OW34019   4.130   0.274   5.275  0.4229  0.4204 -0.1211
 8562SOL    HW234020   4.169   0.284   5.188 -0.0342  0.0391 -0.3780
 8562SOL    HW334021   4.107   0.363   5.301  1.7284  0.6920  0.1756
 8562SOL    MW434022   4.132   0.287   5.267 -0.1470 -0.6940 -0.5640
 8563SOL     OW34023   1.267   3.686   3.394 -0.7982 -0.4547  0.0552
 8563SOL    HW234024   1.172   3.682   3.405 -0.6712 -0.1120  1.5798
 8563SOL    HW334025   1.301   3.688   3.484  0.6733 -1.0395 -0.4604
 8563SOL    MW434026   1.259   3.686   3.407  0.0483 -0.0108  0.1481
 8564SOL     OW34027   1.382   5.725   4.731 -0.0817 -0.4005 -0.6900
 8564SOL    HW234028   1.324   5.743   4.806  0.0633 -1.9827 -0.1680
 8564SOL    HW334029   1.332   5.664   4.677  0.0599  0.2790 -1.6130
 8564SOL    MW434030   1.367   5.719   4.734 -0.4195  0.1012  0.2508
 8565SOL     OW34031   2.345   5.173   5.844  0.2418 -0.2480 -0.3921
 8565SOL    HW234032   2.432   5.144   5.873  0.1345 -1.7420 -1.4579
 8565SOL    HW334033   2.346   5.161   5.749 -0.7744  0.7592 -0.5503
 8565SOL    MW434034   2.357   5.168   5.835 -0.0243 -0.0625  0.4498
 8566SOL     OW34035   0.328   2.693   2.019  0.3170 -0.2955  0.3107
 8566SOL    HW234036   0.406   2.642   2.001  0.7273 -0.2389  1.8140
 8566SOL    HW334037   0.273   2.636   2.073  0.1292  0.3197  0.7804
 8566SOL    MW434038   0.331   2.679   2.024  0.1532 -0.2157 -0.0436
 8567SOL     OW34039   0.290   0.838   1.443  0.1874 -0.2423  0.1243
 8567SOL    HW234040   0.271   0.931   1.456 -0.1971 -0.0351 -1.6251
 8567SOL    HW334041   0.381   0.828   1.472  0.3274  0.7268  0.0803
 8567SOL    MW434042   0.299   0.849   1.449  0.1539 -0.0502 -0.0279
 8568SOL     OW34043   4.870   4.883   3.925  0.9280  0.0902  0.0648
 8568SOL    HW234044   4.822   4.805   3.896  0.8883  0.5126 -1.0460
 8568SOL    HW334045   4.960   4.852   3.937  0.4984 -0.6078  1.7356
 8568SOL    MW434046   4.876   4.868   3.923 -0.5319 -0.5045  0.3861
 8569SOL     OW34047   3.119   1.320   1.648  0.3815  0.0249 -0.2378
 8569SOL    HW234048   3.078   1.293   1.730  1.5974 -0.6174  0.1813
 8569SOL    HW334049   3.071   1.273   1.580 -0.3939  0.2802  0.1205
 8569SOL    MW434050   3.107   1.311   1.650  0.4796  0.1176  0.2402
 8570SOL     OW34051   1.777   2.895   6.044 -0.1725 -0.0472 -0.0123
 8570SOL    HW234052   1.718   2.823   6.070 -0.3567  0.0259 -0.2243
 8570SOL    HW334053   1.849   2.891   6.107  0.5326 -1.3064 -0.8516
 8570SOL    MW434054   1.779   2.885   6.056  0.0364 -0.2577  0.2176
 8571SOL     OW34055   3.361   5.007   0.867  0.0845  0.3683  0.3874
 8571SOL    HW234056   3.388   5.095   0.840  0.7945 -0.6820 -2.7463
 8571SOL    HW334057   3.266   5.006   0.855  0.4020 -0.3014 -3.5578
 8571SOL    MW434058   3.352   5.018   0.862  0.2790  0.0511  0.4268
 8572SOL     OW34059   1.709   3.567   1.798 -0.8431 -0.8098 -0.3824
 8572SOL    HW234060   1.741   3.657   1.788  1.8899 -1.5916  0.4363
 8572SOL    HW334061   1.698   3.555   1.892 -2.2521 -1.0512 -0.5484
 8572SOL    MW434062   1.712   3.577   1.809  0.0030 -0.0794 -0.6165
 8573SOL     OW34063   5.980   5.760   5.019  0.0330  0.3916 -0.0688
 8573SOL    HW234064   6.009   5.720   5.100 -0.5615 -2.2326 -1.0569
 8573SOL    HW334065   6.060   5.768   4.966  0.2686  1.2729  0.3900
 8573SOL    MW434066   5.994   5.756   5.022 -0.7242 -0.0555 -0.4503
 8574SOL     OW34067   3.761   2.041   0.862 -0.2825  0.6342  0.2048
 8574SOL    HW234068   3.673   2.013   0.838 -0.0556  1.6241 -2.0777
 8574SOL    HW334069   3.784   2.106   0.796  2.1793  0.3715  0.6966
 8574SOL    MW434070   3.752   2.046   0.850  0.8217  0.2461  0.2901
 8575SOL     OW34071   2.335   4.418   0.679 -0.1545  0.7113 -0.2042
 8575SOL    HW234072   2.246   4.447   0.656 -1.1059 -1.0084  1.0849
 8575SOL    HW334073   2.366   4.484   0.741 -0.3292  1.5656 -1.0021
 8575SOL    MW434074   2.327   4.431   0.684 -0.3405  0.2752  1.0783
 8576SOL     OW34075   5.208   1.024   6.240  0.2266 -0.3754  0.6042
 8576SOL    HW234076   5.300   1.024   6.267  0.1944 -0.0341  0.7096
 8576SOL    HW334077   5.211   1.014   6.144  0.4357  1.4214  0.3884
 8576SOL    MW434078   5.220   1.022   6.231 -0.5234 -0.1967 -0.0249
 8577SOL     OW34079   1.245   4.311   4.707 -0.0209 -0.1052  0.3817
 8577SOL    HW234080   1.229   4.326   4.613 -3.5607 -0.9129  0.6986
 8577SOL    HW334081   1.192   4.378   4.750  1.3406  0.0639  1.8581
 8577SOL    MW434082   1.236   4.322   4.700  0.0892 -0.3792  0.4093
 8578SOL     OW34083   1.004   2.299   1.764 -0.0570 -0.4180 -0.1919
 8578SOL    HW234084   1.059   2.287   1.842  0.5677  1.2736 -0.3316
 8578SOL    HW334085   1.058   2.269   1.691  0.8306  1.5015 -0.3590
 8578SOL    MW434086   1.018   2.293   1.765  0.0226 -0.3646 -0.0724
 8579SOL     OW34087   4.541   1.038   5.854  0.2449 -0.1807 -0.5879
 8579SOL    HW234088   4.614   1.074   5.804  1.4132 -0.8334  0.6100
 8579SOL    HW334089   4.475   1.015   5.788  1.5293 -0.5170 -1.7818
 8579SOL    MW434090   4.542   1.040   5.839 -0.3539  0.6316  0.2440
 8580SOL     OW34091   0.203   2.178   1.783  0.3815  0.4092 -0.2807
 8580SOL    HW234092   0.138   2.206   1.718  2.4253 -2.2100 -3.8608
 8580SOL    HW334093   0.280   2.232   1.764  0.6528  0.4822  0.9434
 8580SOL    MW434094   0.204   2.189   1.772 -0.1035 -0.4419  0.3842
 8581SOL     OW34095   5.133   4.815   6.055  0.2796  0.0001  0.4625
 8581SOL    HW234096   5.071   4.787   6.123 -0.5465 -0.8729 -0.6291
 8581SOL    HW334097   5.189   4.878   6.100 -0.9542  0.2993  1.6775
 8581SOL    MW434098   5.132   4.820   6.070 -0.2503 -0.2372  0.3206
 8582SOL     OW34099   5.005   1.528   1.334 -0.2976  0.0638 -0.5159
 8582SOL    HW234100   5.046   1.607   1.297 -1.5544  1.3270  0.6912
 8582SOL    HW334101   5.046   1.456   1.286  2.1962  1.3217 -0.4407
 8582SOL    MW434102   5.016   1.529   1.323 -0.0063  0.0504  0.1399
 8583SOL     OW34103   3.165   3.721   0.774 -0.4794 -0.7474 -0.2726
 8583SOL    HW234104   3.230   3.671   0.823  0.0407  0.8296  0.7273
 8583SOL    HW334105   3.119   3.773   0.841  1.6637  3.0948 -1.5029
 8583SOL    MW434106   3.167   3.721   0.789 -0.3646 -0.5368  0.1865
 8584SOL     OW34107   5.856   2.925   5.123  0.4190 -0.2679  0.0716
 8584SOL    HW234108   5.840   2.858   5.057 -1.9585 -0.5983  0.8803
 8584SOL    HW334109   5.877   2.876   5.203 -0.9592 -0.0889  0.5746
 8584SOL    MW434110   5.856   2.910   5.125 -0.3150  0.1953  0.0367
 8585SOL     OW34111   1.295   1.771   5.361 -0.3589  0.6377 -0.4421
 8585SOL    HW234112   1.299   1.864   5.342  0.9848  0.9026  0.9343
 8585SOL    HW334113   1.283   1.729   5.276  1.6405  1.9159 -1.4266
 8585SOL    MW434114   1.294   1.778   5.347  1.0287  0.0865  0.5142
 8586SOL     OW34115   3.050   3.721   5.983  0.0162 -0.4378 -0.3512
 8586SOL    HW234116   2.967   3.683   6.015  0.1981  0.6139  1.5120
 8586SOL    HW334117   3.081   3.658   5.919 -1.1904 -1.9363  0.4496
 8586SOL    MW434118   3.043   3.707   5.979 -0.4563  0.0985 -0.2422
 8587SOL     OW34119   2.694   2.640   2.000 -0.0816  1.4522  0.2345
 8587SOL    HW234120   2.696   2.572   1.932  1.2926  0.7062  0.9645
 8587SOL    HW334121   2.601   2.662   2.010 -0.4037  0.8000 -1.1115
 8587SOL    MW434122   2.682   2.634   1.993  0.0511  0.3180  0.4437
 8588SOL     OW34123   6.388   0.132   2.164  0.0131  0.9464 -0.3366
 8588SOL    HW234124   6.315   0.094   2.115 -0.2408  2.1029 -0.8763
 8588SOL    HW334125   6.382   0.092   2.251 -1.7100  1.5674 -0.1423
 8588SOL    MW434126   6.378   0.122   2.169 -0.6058  0.2466  0.9815
 8589SOL     OW34127   1.722   0.111   2.866 -0.2546  0.1919 -0.4878
 8589SOL    HW234128   1.631   0.099   2.840 -0.3467  0.8315 -0.4805
 8589SOL    HW334129   1.747   0.196   2.829 -0.0026  0.5294  0.4313
 8589SOL    MW434130   1.713   0.120   2.858 -0.1015 -0.0009 -0.2517
 8590SOL     OW34131   4.511   6.095   5.272 -0.2180  0.0877  0.5606
 8590SOL    HW234132   4.605   6.114   5.274 -0.2449  0.2104  0.6359
 8590SOL    HW334133   4.501   6.033   5.199 -0.0609 -0.0254  0.6335
 8590SOL    MW434134   4.522   6.089   5.263  0.5887 -0.3288  0.0462
 8591SOL     OW34135   1.252   3.808   5.836 -0.2637 -0.2783 -0.6528
 8591SOL    HW234136   1.218   3.896   5.851  1.9768  1.0332 -2.6156
 8591SOL    HW334137   1.317   3.795   5.906 -1.5956 -1.0441  0.5067
 8591SOL    MW434138   1.256   3.818   5.847 -0.1408 -0.4458  0.1246
 8592SOL     OW34139   3.195   1.606   6.008 -0.1225  0.2240 -0.0742
 8592SOL    HW234140   3.136   1.673   5.974 -1.2258 -0.0039  1.3548
 8592SOL    HW334141   3.200   1.622   6.102  1.8204  0.0102 -0.0921
 8592SOL    MW434142   3.188   1.617   6.016  0.1228 -0.2885  0.1612
 8593SOL     OW34143   0.348   2.330   2.296 -0.4756  0.6278 -0.2248
 8593SOL    HW234144   0.429   2.369   2.331 -0.7219  0.9826 -0.0428
 8593SOL    HW334145   0.328   2.258   2.356  0.4127 -0.2992 -1.0057
 8593SOL    MW434146   0.356   2.326   2.309  0.4970 -0.0253 -0.6428
 8594SOL     OW34147   1.174   2.069   5.537 -0.0526  0.0574  0.1380
 8594SOL    HW234148   1.130   2.144   5.577  2.5342  1.3266  0.7891
 8594SOL    HW334149   1.248   2.051   5.595  2.2179  0.1549 -2.5707
 8594SOL    MW434150   1.178   2.077   5.550  0.9121  0.4705 -0.0559
 8595SOL     OW34151   4.724   4.849   5.508 -0.1320  0.8110  0.0045
 8595SOL    HW234152   4.749   4.828   5.598 -1.6631 -1.4559 -0.0071
 8595SOL    HW334153   4.761   4.779   5.455 -2.2087  0.1079 -0.6151
 8595SOL    MW434154   4.732   4.837   5.513 -0.2887 -0.3133 -0.1839
 8596SOL     OW34155   4.633   0.992   0.109  0.0351  0.8249  0.2047
 8596SOL    HW234156   4.684   0.962   0.033  0.1678  2.4178 -0.3676
 8596SOL    HW334157   4.571   0.921   0.125  1.4510 -0.5097  0.0069
 8596SOL    MW434158   4.632   0.979   0.101  0.3343  0.4134  0.6099
 8597SOL     OW34159   5.269   2.875   1.922 -0.0324 -0.1059  0.3669
 8597SOL    HW234160   5.178   2.883   1.894 -0.1759  1.0696  1.1141
 8597SOL    HW334161   5.300   2.965   1.931  1.1605 -0.4891  0.2737
 8597SOL    MW434162   5.261   2.888   1.920 -0.3599  0.0437 -0.9232
 8598SOL     OW34163   2.313   0.983   0.064  0.2814  0.1992  0.1235
 8598SOL    HW234164   2.301   0.888   0.055 -1.2600  0.5165 -1.6472
 8598SOL    HW334165   2.231   1.013   0.103  0.3491  0.9266 -0.2841
 8598SOL    MW434166   2.301   0.975   0.068 -0.4627 -0.7505 -0.8011
 8599SOL     OW34167   1.255   1.755   6.015 -0.3765  0.5610 -0.0562
 8599SOL    HW234168   1.216   1.818   5.954 -1.0095  1.2403  1.0015
 8599SOL    HW334169   1.194   1.753   6.089 -0.8199 -1.9950 -0.4320
 8599SOL    MW434170   1.242   1.763   6.017  0.5483 -0.2391 -0.4532
 8600SOL     OW34171   4.364   4.601   4.901 -0.3115 -0.1899 -0.1863
 8600SOL    HW234172   4.343   4.629   4.991  0.8867 -0.6861  0.2638
 8600SOL    HW334173   4.331   4.672   4.846 -1.3859 -0.0452  0.6169
 8600SOL    MW434174   4.357   4.614   4.906  0.0599  0.4431  0.0644
 8601SOL     OW34175   2.196   2.145   6.213  0.4978  0.3372  0.0352
 8601SOL    HW234176   2.235   2.205   6.276  0.8064  1.0521 -0.8175
 8601SOL    HW334177   2.193   2.061   6.259  0.0003  1.0090  1.2671
 8601SOL    MW434178   2.201   2.142   6.227  0.7828  0.0954  0.0034
 8602SOL     OW34179   0.868   6.147   0.874  0.4213 -0.0087 -0.0530
 8602SOL    HW234180   0.945   6.167   0.927  1.6596 -0.0167 -1.7552
 8602SOL    HW334181   0.797   6.140   0.937  1.6320  0.8919  1.4967
 8602SOL    MW434182   0.869   6.149   0.889 -0.3770  0.6794  0.6808
 8603SOL     OW34183   5.718   3.405   1.794 -0.4911  0.3261  0.0838
 8603SOL    HW234184   5.769   3.456   1.856 -0.7171  1.4630 -0.6394
 8603SOL    HW334185   5.766   3.412   1.712 -1.4157  0.8173 -0.4320
 8603SOL    MW434186   5.731   3.412   1.791  0.0614 -0.2808  0.4264
 8604SOL     OW34187   1.939   3.201   0.777 -0.3504 -0.3163  0.7236
 8604SOL    HW234188   1.917   3.278   0.724 -1.4627 -2.0259 -1.4869
 8604SOL    HW334189   2.033   3.189   0.762 -0.4388 -0.1576 -0.0070
 8604SOL    MW434190   1.948   3.210   0.768 -0.2744 -0.1355 -0.0657
 8605SOL     OW34191   5.550   1.842   2.130 -0.4632 -0.2835 -0.3624
 8605SOL    HW234192   5.548   1.823   2.224 -0.2238 -1.7188 -0.6241
 8605SOL    HW334193   5.614   1.913   2.121 -1.3716  0.7052  0.6712
 8605SOL    MW434194   5.558   1.849   2.141  0.3397 -0.1542 -0.1283
 8606SOL     OW34195   3.225   1.219   4.720  0.1017 -0.1805  0.1028
 8606SOL    HW234196   3.173   1.294   4.690  1.2262  0.9965  1.0081
 8606SOL    HW334197   3.315   1.251   4.723  0.8073 -1.9725 -0.7390
 8606SOL    MW434198   3.230   1.233   4.717 -0.1036 -0.1039  0.1189
 8607SOL     OW34199   2.870   3.896   2.016  0.1112 -0.2154 -0.2906
 8607SOL    HW234200   2.913   3.925   1.935 -2.6243 -0.0370 -1.7847
 8607SOL    HW334201   2.837   3.977   2.055  0.7582 -0.3895  0.6486
 8607SOL    MW434202   2.871   3.910   2.010  0.1876 -0.1212  0.2934
 8608SOL     OW34203   1.118   1.647   2.782 -0.6254 -0.0343  0.6162
 8608SOL    HW234204   1.173   1.718   2.814 -1.0300 -0.9154  3.6362
 8608SOL    HW334205   1.179   1.579   2.755 -0.2492  0.8290 -0.7566
 8608SOL    MW434206   1.133   1.648   2.783  0.2200 -0.3494  0.5246
 8609SOL     OW34207   3.385   0.356   2.868 -0.2915  0.2953  0.1402
 8609SOL    HW234208   3.309   0.301   2.891  0.7965 -1.5530 -0.4699
 8609SOL    HW334209   3.459   0.311   2.908  0.6636  1.3352 -0.4313
 8609SOL    MW434210   3.384   0.343   2.876 -0.0855 -0.1151  0.7396
 8610SOL     OW34211   5.473   2.359   6.126 -0.4701  0.1352  0.2256
 8610SOL    HW234212   5.494   2.442   6.084 -3.1836  0.8032 -0.0443
 8610SOL    HW334213   5.382   2.370   6.155  0.4068 -1.1868  4.0714
 8610SOL    MW434214   5.463   2.372   6.125  0.2005  0.6960 -0.6930
 8611SOL     OW34215   2.955   5.728   2.049 -0.1345  0.2061 -0.4052
 8611SOL    HW234216   2.893   5.661   2.020 -0.3353  0.3480 -0.3066
 8611SOL    HW334217   3.029   5.678   2.082  0.2600  0.0435 -1.4982
 8611SOL    MW434218   2.956   5.712   2.050  0.2902 -0.2953  0.1017
 8612SOL     OW34219   3.349   5.168   3.355  0.2124 -0.1149 -0.0057
 8612SOL    HW234220   3.399   5.150   3.435  0.1305 -0.9893 -0.1336
 8612SOL    HW334221   3.415   5.174   3.286  0.4407  2.3132  0.3471
 8612SOL    MW434222   3.364   5.166   3.357 -0.4115  0.6146  0.8538
 8613SOL     OW34223   0.524   1.414   0.790 -0.2750  0.0723  0.2939
 8613SOL    HW234224   0.571   1.331   0.788 -2.0081 -0.9999 -2.1368
 8613SOL    HW334225   0.590   1.480   0.771  1.2170 -0.6170  2.6980
 8613SOL    MW434226   0.539   1.412   0.787  1.1252 -0.6168 -0.4600
 8614SOL     OW34227   2.150   3.934   4.026 -0.0616 -0.2353  0.5054
 8614SOL    HW234228   2.116   4.000   4.087 -1.2816 -0.4958  0.1303
 8614SOL    HW334229   2.074   3.879   4.005  0.7306 -1.1952  0.0895
 8614SOL    MW434230   2.135   3.936   4.031  0.3587  0.0486  0.2755
 8615SOL     OW34231   6.366   4.801   2.104  0.1615  0.2225  0.5899
 8615SOL    HW234232   6.436   4.762   2.051  0.8059  1.0617  0.8058
 8615SOL    HW334233   6.408   4.875   2.148 -0.6215  0.1388  1.4935
 8615SOL    MW434234   6.381   4.806   2.102  0.2386  0.0196 -0.4960
 8616SOL     OW34235   2.629   4.969   2.976  0.0616  0.4298 -0.1700
 8616SOL    HW234236   2.671   4.883   2.980  1.5051  1.0058 -1.7543
 8616SOL    HW334237   2.641   5.006   3.063  0.2223 -0.5962  0.2620
 8616SOL    MW434238   2.636   4.962   2.988  0.3742  0.0347 -0.3374
 8617SOL     OW34239   2.644   5.204   0.979 -0.1514 -0.1298  0.0678
 8617SOL    HW234240   2.643   5.278   0.918 -0.2651  0.1300  0.3856
 8617SOL    HW334241   2.554   5.169   0.975 -0.1081 -0.2295 -0.0532
 8617SOL    MW434242   2.632   5.209   0.970  0.6777 -0.0533 -0.2166
 8618SOL     OW34243   3.622   4.498   6.254  0.3585 -0.2554  0.7388
 8618SOL    HW234244   3.703   4.525   6.297 -0.1807  3.4609 -0.2372
 8618SOL    HW334245   3.553   4.541   6.304 -0.9334 -2.0431  0.5763
 8618SOL    MW434246   3.624   4.507   6.266  0.1657 -0.3499 -0.0630
 8619SOL     OW34247   4.597   5.359   2.925 -0.3487 -0.2288  0.7146
 8619SOL    HW234248   4.660   5.288   2.916  0.2430  0.3752 -0.0081
 8619SOL    HW334249   4.648   5.438   2.912 -0.7906  0.4090  2.5814
 8619SOL    MW434250   4.612   5.360   2.922 -0.6829  0.4786  0.4817
 8620SOL     OW34251   1.532   5.479   1.360  0.3198 -0.0371 -0.0347
 8620SOL    HW234252   1.480   5.462   1.439 -0.0377 -0.9748 -0.4569
 8620SOL    HW334253   1.621   5.494   1.393  0.1988 -0.5463  0.5416
 8620SOL    MW434254   1.537   5.479   1.375  0.0770 -0.5291 -0.2359
 8621SOL     OW34255   1.225   1.454   1.539 -0.5385  0.2630 -0.0366
 8621SOL    HW234256   1.238   1.418   1.626 -0.5277 -0.4028 -0.3103
 8621SOL    HW334257   1.130   1.457   1.528 -0.5375  0.2368 -0.0515
 8621SOL    MW434258   1.214   1.450   1.549 -0.1291 -0.0741  0.2899
 8622SOL     OW34259   5.729   0.690   5.699  0.3208  0.0382 -0.5142
 8622SOL    HW234260   5.724   0.786   5.696 -0.4632  0.0709  1.0162
 8622SOL    HW334261   5.754   0.670   5.790 -0.3611 -1.2353 -0.5875
 8622SOL    MW434262   5.732   0.700   5.711  0.4215 -0.6099  0.9076
 8623SOL     OW34263   3.125   2.634   2.209  0.5071 -0.1020 -0.0403
 8623SOL    HW234264   3.186   2.621   2.281  0.5697 -1.8372 -0.3480
 8623SOL    HW334265   3.181   2.657   2.134  0.4410  1.6993  0.4199
 8623SOL    MW434266   3.141   2.635   2.208 -0.1581 -0.0564  0.3394
 8624SOL     OW34267   3.070   5.707   6.262  0.0042 -0.2500 -0.0763
 8624SOL    HW234268   3.095   5.657   6.184  0.9147 -0.7901  0.5373
 8624SOL    HW334269   3.139   5.688   6.325 -0.4179  0.6348  0.6747
 8624SOL    MW434270   3.082   5.698   6.260 -0.0183  0.4720 -0.2156
 8625SOL     OW34271   0.112   3.432   1.246 -0.2835 -0.2822 -0.0160
 8625SOL    HW234272   0.135   3.476   1.328 -0.6290 -1.0183  0.4894
 8625SOL    HW334273   0.191   3.385   1.221  0.6517  1.8502 -1.4346
 8625SOL    MW434274   0.125   3.432   1.254  0.1247 -0.2042 -0.0066
 8626SOL     OW34275   2.798   5.391   3.989  0.6397  0.0045 -0.2160
 8626SOL    HW234276   2.722   5.449   3.980  1.0331  0.3561 -1.5284
 8626SOL    HW334277   2.869   5.437   3.944  1.4264 -0.7072  0.2535
 8626SOL    MW434278   2.797   5.405   3.982  0.2554  0.1139 -0.0909
 8627SOL     OW34279   4.700   0.854   6.070 -0.5253  0.1228  0.4590
 8627SOL    HW234280   4.661   0.937   6.044  1.3301  1.1352  0.7130
 8627SOL    HW334281   4.717   0.808   5.988 -3.2400 -0.9107  0.3687
 8627SOL    MW434282   4.697   0.859   6.056 -0.1056  0.0140 -0.1430
 8628SOL     OW34283   2.586   6.063   2.160 -0.3979  0.5926  0.0075
 8628SOL    HW234284   2.564   6.085   2.250  1.7375 -0.7316  0.9291
 8628SOL    HW334285   2.617   6.145   2.122  0.6568  0.7500  1.1559
 8628SOL    MW434286   2.587   6.077   2.167 -0.8424 -0.1068  0.0114
 8629SOL     OW34287   1.825   2.168   5.395  0.0743 -0.0171 -0.3392
 8629SOL    HW234288   1.861   2.255   5.408  0.7380 -0.2271 -0.7642
 8629SOL    HW334289   1.732   2.183   5.378 -0.4669  0.4347  2.4738
 8629SOL    MW434290   1.817   2.181   5.395 -0.6778  0.5555 -0.6515
 8630SOL     OW34291   0.587   1.864   4.889  0.2260 -0.0503 -0.5729
 8630SOL    HW234292   0.672   1.819   4.893 -0.0149 -0.5596 -1.0052
 8630SOL    HW334293   0.605   1.953   4.920  0.7759 -0.3542 -0.0042
 8630SOL    MW434294   0.601   1.870   4.893 -0.1886 -0.1857  0.3068
 8631SOL     OW34295   5.049   1.436   5.544  0.1078 -0.5147  0.2832
 8631SOL    HW234296   5.017   1.367   5.603 -2.8112  1.2720  0.9837
 8631SOL    HW334297   4.973   1.459   5.491  0.9243  2.2376  0.1643
 8631SOL    MW434298   5.035   1.430   5.545 -0.0023  0.1751 -0.1009
 8632SOL     OW34299   5.209   3.689   2.283  1.0566  1.0428  0.6720
 8632SOL    HW234300   5.296   3.684   2.324  1.9142  0.6681 -1.0784
 8632SOL    HW334301   5.216   3.632   2.206 -1.6549 -1.3387  1.9821
 8632SOL    MW434302   5.222   3.681   2.278 -0.1177 -0.3802  0.4721
 8633SOL     OW34303   3.465   0.557   4.875 -0.4843 -0.3449 -0.3158
 8633SOL    HW234304   3.395   0.580   4.935 -0.0004  0.0753  0.0968
 8633SOL    HW334305   3.451   0.615   4.799  0.8446  1.5494  0.7989
 8633SOL    MW434306   3.454   0.568   4.873 -0.3043  0.0947 -0.1392
 8634SOL     OW34307   4.885   5.163   3.222  0.1496  0.2248  0.0506
 8634SOL    HW234308   4.797   5.135   3.198  1.0933 -1.6518 -1.4731
 8634SOL    HW334309   4.943   5.116   3.162  2.1812  1.8539  0.5959
 8634SOL    MW434310   4.881   5.153   3.211  0.7560  0.4413 -0.3037
 8635SOL     OW34311   1.768   2.299   0.214 -0.8659 -0.4262  0.3388
 8635SOL    HW234312   1.734   2.250   0.289 -1.4749 -0.9745 -0.2883
 8635SOL    HW334313   1.842   2.247   0.182  0.4301  0.6070  1.5080
 8635SOL    MW434314   1.774   2.285   0.220 -0.5054  0.1781 -0.0999
 8636SOL     OW34315   5.254   6.364   5.935 -0.4059 -0.1243  0.1971
 8636SOL    HW234316   5.221   6.445   5.895 -1.0098 -1.0254 -1.1885
 8636SOL    HW334317   5.178   6.306   5.937 -0.4688 -0.0796  2.9066
 8636SOL    MW434318   5.239   6.367   5.930  0.1911 -0.2752 -0.7643
 8637SOL     OW34319   5.793   0.615   6.001  0.3791 -0.0096 -0.3032
 8637SOL    HW234320   5.745   0.627   6.083 -0.8719  2.1115 -1.2852
 8637SOL    HW334321   5.884   0.638   6.023  0.1549  0.0486  0.5948
 8637SOL    MW434322   5.799   0.620   6.015 -0.7291 -0.0291 -0.4728
 8638SOL     OW34323   0.094   4.723   1.609  0.0385 -0.1887  0.0990
 8638SOL    HW234324   0.089   4.811   1.571 -1.0341 -0.3411 -0.1527
 8638SOL    HW334325   0.017   4.717   1.665  0.4115 -0.7691  0.5605
 8638SOL    MW434326   0.083   4.734   1.611 -0.2141 -0.0758  0.1372
 8639SOL     OW34327   3.628   4.231   6.372 -0.0929  0.2299 -0.1981
 8639SOL    HW234328   3.556   4.178   6.406 -1.1226  1.8357  0.2330
 8639SOL    HW334329   3.585   4.306   6.331  1.3213  0.9091 -0.4948
 8639SOL    MW434330   3.612   4.233   6.371  0.1731  0.2774 -0.2230
 8640SOL     OW34331   0.523   1.532   3.146  0.1371  0.2702  0.0991
 8640SOL    HW234332   0.461   1.462   3.129  0.9680 -0.8969  1.5828
 8640SOL    HW334333   0.559   1.555   3.060  0.5651 -1.8304 -0.3190
 8640SOL    MW434334   0.520   1.526   3.133  0.0686 -0.1630  0.3142
 8641SOL     OW34335   6.302   3.194   4.842  0.1906 -0.2500 -0.0981
 8641SOL    HW234336   6.265   3.157   4.922  2.1397 -0.8107  0.6001
 8641SOL    HW334337   6.304   3.289   4.858  1.1824 -0.4040  0.8340
 8641SOL    MW434338   6.298   3.202   4.855  0.4859 -0.0008  0.7822
 8642SOL     OW34339   2.489   0.640   5.256 -1.1683  0.6084  0.4382
 8642SOL    HW234340   2.509   0.707   5.191 -0.3687  2.1708  2.2248
 8642SOL    HW334341   2.543   0.565   5.231 -0.8455  1.1929 -0.6535
 8642SOL    MW434342   2.499   0.639   5.244  0.5331 -0.1179 -0.0887
 8643SOL     OW34343   2.264   2.338   6.427 -0.2539  0.2631  0.0007
 8643SOL    HW234344   2.227   2.361   6.513 -0.0344 -0.1122  0.1983
 8643SOL    HW334345   2.357   2.326   6.444  0.1199  1.9628 -0.6359
 8643SOL    MW434346   2.271   2.340   6.441 -1.2156  0.4925  0.2300
 8644SOL     OW34347   2.152   5.791   4.064 -0.0515  0.2179 -0.1167
 8644SOL    HW234348   2.210   5.744   4.124  0.5919 -0.0272 -0.9197
 8644SOL    HW334349   2.183   5.768   3.977 -1.2646  0.2131 -0.5643
 8644SOL    MW434350   2.164   5.782   4.061  0.6621 -0.2289  0.3585
 8645SOL     OW34351   3.365   3.365   5.235  0.2509 -0.5744  0.0196
 8645SOL    HW234352   3.308   3.291   5.254  0.1266 -0.5196 -0.1366
 8645SOL    HW334353   3.445   3.325   5.200 -0.0081 -0.6122 -0.5406
 8645SOL    MW434354   3.368   3.350   5.233  1.1802  0.4551 -0.0329
 8646SOL     OW34355   5.976   1.042   1.700  0.0103 -0.3261  0.2218
 8646SOL    HW234356   6.032   1.100   1.649  0.0142 -1.1219 -0.7067
 8646SOL    HW334357   5.996   1.063   1.791  0.3808  0.7568 -0.1018
 8646SOL    MW434358   5.986   1.052   1.705  0.5906  0.7545  0.0060
 8647SOL     OW34359   4.360   4.155   3.561  0.3799  0.0130  0.2795
 8647SOL    HW234360   4.294   4.211   3.520  2.2521  1.5969 -0.7528
 8647SOL    HW334361   4.349   4.169   3.655  1.0164  2.4810  0.0507
 8647SOL    MW434362   4.350   4.164   3.568 -0.0369 -0.7141 -0.6084
 8648SOL     OW34363   1.334   5.248   3.031  0.1500 -0.0737  0.0761
 8648SOL    HW234364   1.280   5.212   2.960 -0.2797 -2.3041  1.4469
 8648SOL    HW334365   1.397   5.304   2.986 -1.2972  0.0979 -1.8780
 8648SOL    MW434366   1.335   5.250   3.016  0.3746  0.1489  0.4819
 8649SOL     OW34367   1.461   3.992   6.016  0.2173 -0.5515  0.4427
 8649SOL    HW234368   1.376   3.964   6.051 -0.7097  0.0683 -1.1977
 8649SOL    HW334369   1.525   3.948   6.072 -1.1368 -0.0151  2.5629
 8649SOL    MW434370   1.458   3.982   6.028  0.3574 -0.6090 -0.1165
 8650SOL     OW34371   2.361   0.591   4.860  0.4004 -0.4608 -0.0710
 8650SOL    HW234372   2.275   0.574   4.821 -0.1848 -1.4853  1.5694
 8650SOL    HW334373   2.411   0.633   4.789 -1.3758  0.0370 -1.1156
 8650SOL    MW434374   2.356   0.595   4.845 -0.1725  0.2773  0.4075
 8651SOL     OW34375   0.288   1.139   0.929  0.9025  0.4640 -0.2574
 8651SOL    HW234376   0.217   1.177   0.878 -0.6993 -0.2208  1.3499
 8651SOL    HW334377   0.321   1.211   0.982  0.1168  0.3974  0.3480
 8651SOL    MW434378   0.283   1.153   0.929 -0.1886  0.0185 -0.2864
 8652SOL     OW34379   1.368   1.915   5.010  0.2139  0.4275 -0.6624
 8652SOL    HW234380   1.286   1.962   5.028  0.0119 -0.2537  0.2972
 8652SOL    HW334381   1.430   1.983   4.986  0.1552  1.3416  1.4886
 8652SOL    MW434382   1.365   1.930   5.010  0.1215  0.5746 -0.1341
 8653SOL     OW34383   5.439   1.700   5.524  0.1459 -0.4256  0.4708
 8653SOL    HW234384   5.482   1.782   5.550  0.9732 -0.8792  0.5845
 8653SOL    HW334385   5.467   1.686   5.433 -3.5826  1.7106 -1.2327
 8653SOL    MW434386   5.449   1.709   5.515 -0.3246 -0.2821 -0.8330
 8654SOL     OW34387   3.781   6.286   0.190  0.2617 -0.4235  0.6474
 8654SOL    HW234388   3.843   6.266   0.260  2.3682  2.1421 -0.2814
 8654SOL    HW334389   3.697   6.257   0.223  1.3807 -0.6104  3.6512
 8654SOL    MW434390   3.778   6.280   0.204  0.2932  0.1046  0.1364
 8655SOL     OW34391   2.123   3.310   6.004 -0.5176 -0.4752 -0.6157
 8655SOL    HW234392   2.185   3.252   6.048 -0.5491 -0.1708 -0.1701
 8655SOL    HW334393   2.115   3.274   5.916  1.0776  0.0723 -1.0049
 8655SOL    MW434394   2.130   3.297   5.998 -0.1532 -0.1612  0.0334
 8656SOL     OW34395   2.235   6.056   0.947  0.3516 -0.0327  0.1005
 8656SOL    HW234396   2.297   6.126   0.927  0.6632 -0.8451 -2.0502
 8656SOL    HW334397   2.210   6.072   1.038  0.8400  2.5274 -0.1266
 8656SOL    MW434398   2.240   6.067   0.956 -0.1528  0.3751  0.4633
 8657SOL     OW34399   1.697   5.953   4.540  0.3493  0.7481  0.0915
 8657SOL    HW234400   1.708   6.046   4.563  1.5478  0.6553 -0.0527
 8657SOL    HW334401   1.755   5.906   4.600 -0.1741  0.0929  0.0953
 8657SOL    MW434402   1.706   5.959   4.551 -0.1207 -0.1633  0.0770
 8658SOL     OW34403   6.426   0.544   6.136  0.2488 -0.6069 -0.7743
 8658SOL    HW234404   6.431   0.453   6.106 -0.7984 -0.9563  0.0747
 8658SOL    HW334405   6.478   0.546   6.216  0.0347 -0.5158 -0.6381
 8658SOL    MW434406   6.434   0.532   6.143 -0.6279 -0.6729  0.1645
 8659SOL     OW34407   5.847   0.231   5.993 -0.0470  0.0906  0.3333
 8659SOL    HW234408   5.929   0.221   5.945  0.4234  0.1940  1.1006
 8659SOL    HW334409   5.794   0.290   5.939  1.4018  2.1809  1.0668
 8659SOL    MW434410   5.850   0.238   5.980  0.4407  0.5637 -0.0496
 8660SOL     OW34411   4.853   4.156   0.016  0.2231 -0.5534 -0.3906
 8660SOL    HW234412   4.871   4.133  -0.075  0.4040 -0.3829 -0.3989
 8660SOL    HW334413   4.844   4.251   0.016  0.9597 -0.4787 -0.1089
 8660SOL    MW434414   4.854   4.165   0.004  0.4224 -0.2604 -0.0131
 8661SOL     OW34415   4.362   4.716   5.145  0.1991 -0.0763  0.3010
 8661SOL    HW234416   4.329   4.804   5.125  0.3997  0.4100  1.9510
 8661SOL    HW334417   4.316   4.690   5.224 -0.2814 -1.7292 -0.4785
 8661SOL    MW434418   4.352   4.724   5.153  0.0749  0.4959 -0.2941
 8662SOL     OW34419   0.731   2.257   3.528 -0.4084  0.1326 -0.0591
 8662SOL    HW234420   0.824   2.281   3.531  0.0378 -1.5386  1.5205
 8662SOL    HW334421   0.704   2.277   3.438  1.5954  0.2426 -0.6954
 8662SOL    MW434422   0.740   2.262   3.516 -0.4319 -0.1508 -0.1382
 8663SOL     OW34423   0.858   5.260   5.635  0.1173 -0.7073  0.5481
 8663SOL    HW234424   0.862   5.354   5.654  1.9247 -0.7588  0.5706
 8663SOL    HW334425   0.891   5.251   5.546 -0.9776 -1.2376  0.1816
 8663SOL    MW434426   0.863   5.271   5.626 -0.4181  0.5000 -0.3378
 8664SOL     OW34427   3.263   6.371   3.778  0.2531 -0.3377 -0.1283
 8664SOL    HW234428   3.246   6.278   3.796 -1.1533  0.0062  0.5007
 8664SOL    HW334429   3.232   6.384   3.688  1.6912 -0.7522 -0.7004
 8664SOL    MW434430   3.256   6.361   3.769  0.3017  0.5773  0.5418
 8665SOL     OW34431   5.164   3.682   2.749 -0.2578 -0.0712 -0.2327
 8665SOL    HW234432   5.170   3.616   2.818  0.4643  1.0899  0.8660
 8665SOL    HW334433   5.079   3.723   2.762 -0.1396  0.1193 -0.0616
 8665SOL    MW434434   5.154   3.679   2.760  0.0149  0.4280 -0.5630
 8666SOL     OW34435   5.547   0.360   4.441  1.4447 -0.6880  0.0674
 8666SOL    HW234436   5.569   0.280   4.489 -0.2579 -2.3421 -1.7249
 8666SOL    HW334437   5.598   0.354   4.360 -0.8645 -1.5548 -1.4150
 8666SOL    MW434438   5.557   0.348   4.436 -0.0896 -0.1045 -0.1873
 8667SOL     OW34439   1.662   1.432   5.497 -0.2719 -0.2852  0.3504
 8667SOL    HW234440   1.742   1.454   5.449 -1.8923  0.5192 -2.2254
 8667SOL    HW334441   1.657   1.336   5.491  0.0990 -0.2771 -0.1995
 8667SOL    MW434442   1.672   1.422   5.490  0.2716  0.1126  0.1336
 8668SOL     OW34443   2.126   5.337   3.027 -0.3118 -0.2262 -0.7212
 8668SOL    HW234444   2.158   5.341   3.117 -1.6135  2.1634 -0.2999
 8668SOL    HW334445   2.056   5.402   3.023 -0.4367 -0.4201 -3.4091
 8668SOL    MW434446   2.121   5.346   3.038 -0.1413  0.0974 -0.0772
 8669SOL     OW34447   6.311   0.641   2.419  0.1087  0.5993 -0.0964
 8669SOL    HW234448   6.321   0.596   2.502 -0.6766  2.0379  0.8168
 8669SOL    HW334449   6.228   0.688   2.427 -0.2118  0.4095 -1.8682
 8669SOL    MW434450   6.301   0.641   2.431  0.0655 -0.1440 -0.1052
 8670SOL     OW34451   3.975   6.343   6.151  0.4810  0.0407 -0.3699
 8670SOL    HW234452   3.921   6.281   6.101  0.1649  1.0748 -1.3632
 8670SOL    HW334453   4.064   6.328   6.118  0.6343 -0.8095  0.3823
 8670SOL    MW434454   3.980   6.332   6.140  0.3603  0.2671  0.6566
 8671SOL     OW34455   5.769   3.209   3.083 -0.3018  0.1629 -1.1127
 8671SOL    HW234456   5.707   3.246   3.021 -0.3073  1.3126 -0.4378
 8671SOL    HW334457   5.775   3.116   3.058 -1.8351  0.1606 -1.5309
 8671SOL    MW434458   5.762   3.201   3.071 -0.1347 -0.2663 -0.0381
 8672SOL     OW34459   1.979   0.531   2.440 -0.3792 -0.5433 -0.1029
 8672SOL    HW234460   1.947   0.450   2.399 -2.8956  0.4147 -0.2289
 8672SOL    HW334461   1.985   0.593   2.367  2.5350 -0.8003 -0.1851
 8672SOL    MW434462   1.976   0.528   2.425  0.0414 -0.1142 -0.4480
 8673SOL     OW34463   5.508   5.721   1.226  0.1255  0.1876  0.4355
 8673SOL    HW234464   5.536   5.795   1.173 -1.3153  0.5138  0.1085
 8673SOL    HW334465   5.484   5.653   1.163 -1.7809  0.6439  0.6074
 8673SOL    MW434466   5.509   5.722   1.211  0.3572 -0.4758 -0.6578
 8674SOL     OW34467   2.544   2.099   2.041 -0.4261 -0.1295 -0.0677
 8674SOL    HW234468   2.527   2.168   2.106 -0.4194  0.5980 -0.8124
 8674SOL    HW334469   2.639   2.091   2.039 -0.4614 -0.8725  0.7278
 8674SOL    MW434470   2.554   2.107   2.049  0.0029  0.2091 -0.3843
 8675SOL     OW34471   5.406   1.570   5.263 -0.0270 -0.2326 -0.4046
 8675SOL    HW234472   5.497   1.553   5.239 -0.4591 -0.6031 -1.8563
 8675SOL    HW334473   5.357   1.557   5.182 -1.5010 -0.9897  0.5767
 8675SOL    MW434474   5.412   1.566   5.249  0.3128 -0.0344 -0.3039
 8676SOL     OW34475   0.127   1.140   4.671  0.0418  0.2874 -0.2849
 8676SOL    HW234476   0.105   1.164   4.581 -1.3728  0.4937  0.0950
 8676SOL    HW334477   0.044   1.144   4.718  0.9797  1.5839  1.3560
 8676SOL    MW434478   0.113   1.143   4.665  0.1373 -0.1859 -0.3014
 8677SOL     OW34479   4.631   1.209   3.978 -0.1670  0.0723  0.6406
 8677SOL    HW234480   4.612   1.303   3.970  1.6701  0.7787  3.2003
 8677SOL    HW334481   4.724   1.205   3.997 -0.1297 -2.3306  0.1723
 8677SOL    MW434482   4.641   1.221   3.980 -0.4487 -0.0719  0.0448
 8678SOL     OW34483   0.308   5.702   3.674  0.1177  0.6709  0.5394
 8678SOL    HW234484   0.213   5.695   3.683 -0.1912  3.3307  0.0667
 8678SOL    HW334485   0.343   5.657   3.752 -1.6321  2.0286  2.1883
 8678SOL    MW434486   0.300   5.695   3.686 -0.3227  0.0020 -1.1520
 8679SOL     OW34487   1.747   0.381   2.780  0.3867 -0.0451 -0.3338
 8679SOL    HW234488   1.818   0.395   2.843  0.4332  0.5923 -0.5279
 8679SOL    HW334489   1.755   0.454   2.719 -1.2520  0.7735  0.3851
 8679SOL    MW434490   1.758   0.392   2.780 -0.9798 -1.0309 -0.2101
 8680SOL     OW34491   4.651   0.865   1.602 -0.6835  1.0425  0.1478
 8680SOL    HW234492   4.630   0.890   1.512 -1.1184 -0.4648 -0.1961
 8680SOL    HW334493   4.608   0.781   1.614 -1.2607  1.5519  2.0283
 8680SOL    MW434494   4.642   0.857   1.592 -0.0377  1.0396 -0.3945
 8681SOL     OW34495   3.853   4.342   3.605 -0.0153 -0.6035  0.0620
 8681SOL    HW234496   3.780   4.281   3.600  0.1465 -0.7225 -1.4680
 8681SOL    HW334497   3.836   4.405   3.534  0.2396  0.6638  1.0772
 8681SOL    MW434498   3.841   4.343   3.595 -0.4760  0.1785  0.0394
 8682SOL     OW34499   4.506   4.915   2.989  0.2655 -0.0334  0.9196
 8682SOL    HW234500   4.576   4.863   2.950  1.3771  1.5442  0.7666
 8682SOL    HW334501   4.433   4.853   2.998  0.4000 -0.8398 -2.2973
 8682SOL    MW434502   4.505   4.900   2.985  0.1967 -0.3803  0.6445
 8683SOL     OW34503   0.514   0.332   3.111  0.2715 -0.4569 -0.3019
 8683SOL    HW234504   0.576   0.283   3.057  0.3110 -1.0156  0.2358
 8683SOL    HW334505   0.525   0.295   3.199 -1.4786 -1.2391 -0.3686
 8683SOL    MW434506   0.524   0.321   3.115 -0.0852 -0.3888 -0.0053
 8684SOL     OW34507   2.900   0.332   1.885  0.2121  0.4877 -0.0165
 8684SOL    HW234508   2.919   0.252   1.934 -3.4011 -0.0040  0.8309
 8684SOL    HW334509   2.969   0.393   1.912  2.1697 -1.8116  0.4913
 8684SOL    MW434510   2.912   0.330   1.895 -0.7100 -0.4472  0.0662
 8685SOL     OW34511   4.756   0.679   4.583  0.1713  0.5660 -0.9584
 8685SOL    HW234512   4.738   0.760   4.536  2.1340  0.3707 -2.1498
 8685SOL    HW334513   4.801   0.706   4.663 -4.0384  0.9872  1.6174
 8685SOL    MW434514   4.759   0.693   4.587  0.7484 -0.0841 -0.1404
 8686SOL     OW34515   1.948   4.212   5.525  0.7622 -0.2670  0.8920
 8686SOL    HW234516   2.024   4.262   5.495 -0.2262  0.2458 -0.8818
 8686SOL    HW334517   1.983   4.154   5.592  2.4604  0.8868  1.0755
 8686SOL    MW434518   1.963   4.211   5.530  1.0240  0.2516  0.0693
 8687SOL     OW34519   3.828   4.435   1.945  0.0438 -0.1629  0.1310
 8687SOL    HW234520   3.885   4.466   2.015  0.6312 -0.8384 -0.0276
 8687SOL    HW334521   3.772   4.509   1.924  1.0014  0.5986  0.1624
 8687SOL    MW434522   3.828   4.449   1.951 -0.3046  0.2151 -0.0957
 8688SOL     OW34523   1.388   4.424   3.715  0.4914 -0.7629  0.2320
 8688SOL    HW234524   1.477   4.391   3.728  1.7560  1.5080 -2.0233
 8688SOL    HW334525   1.367   4.403   3.624  0.9627  3.4264 -1.0194
 8688SOL    MW434526   1.397   4.417   3.705  0.4753 -0.4043  0.1440
 8689SOL     OW34527   1.272   3.180   6.320  0.6404 -0.3592  0.0765
 8689SOL    HW234528   1.229   3.229   6.391  0.4419  0.4978 -0.6230
 8689SOL    HW334529   1.277   3.242   6.248  1.0054 -1.1735 -0.6098
 8689SOL    MW434530   1.267   3.195   6.320 -0.1389  0.3476  0.2921
 8690SOL     OW34531   3.656   4.833   5.720  0.1799 -0.0108  0.2375
 8690SOL    HW234532   3.676   4.757   5.774 -2.1581 -0.4528  0.5922
 8690SOL    HW334533   3.583   4.804   5.665  0.0286  1.6094 -0.4633
 8690SOL    MW434534   3.649   4.819   5.720  0.6854  0.5388  0.2210
 8691SOL     OW34535   3.416   0.402   3.198  0.1550 -0.1770  0.5455
 8691SOL    HW234536   3.353   0.467   3.230 -0.4006 -0.4632  0.0507
 8691SOL    HW334537   3.450   0.361   3.277 -0.7661 -0.4713  0.7990
 8691SOL    MW434538   3.413   0.405   3.213  0.8346  0.2892  0.1070
 8692SOL     OW34539   1.982   4.275   2.448  0.1380  0.1338 -0.3140
 8692SOL    HW234540   2.038   4.263   2.372 -0.6936 -2.2119 -0.6324
 8692SOL    HW334541   1.897   4.240   2.420 -0.4749  0.2220  1.3550
 8692SOL    MW434542   1.978   4.269   2.434  0.2543 -0.5514 -0.9796
 8693SOL     OW34543   2.062   2.103   3.866  0.0607  0.4736 -0.7353
 8693SOL    HW234544   2.141   2.083   3.816 -0.1202  2.1312 -1.7826
 8693SOL    HW334545   2.001   2.033   3.842 -0.2711  1.5785 -3.5367
 8693SOL    MW434546   2.064   2.091   3.856 -0.5409 -0.1104 -0.5579
 8694SOL     OW34547   3.064   3.916   1.782  0.3774  0.2463  0.3077
 8694SOL    HW234548   3.132   3.972   1.745  0.6814 -0.8177 -0.8006
 8694SOL    HW334549   3.075   3.832   1.738 -1.8003  0.1066 -0.0649
 8694SOL    MW434550   3.074   3.912   1.772  0.1855  0.3267 -0.1086
 8695SOL     OW34551   2.944   1.374   4.441  0.6136  0.8648  0.3413
 8695SOL    HW234552   2.990   1.371   4.358  2.5444 -0.1611  1.3866
 8695SOL    HW334553   2.983   1.448   4.487  0.2602  0.8191  0.7214
 8695SOL    MW434554   2.955   1.383   4.436  0.1459 -0.1436  0.0385
 8696SOL     OW34555   0.595   3.170   1.843 -0.6181 -0.0544 -0.5042
 8696SOL    HW234556   0.515   3.193   1.796 -0.6616 -0.3046 -0.5517
 8696SOL    HW334557   0.565   3.145   1.930 -0.7193 -1.3664 -0.9002
 8696SOL    MW434558   0.581   3.170   1.848 -0.1175  0.3778 -0.2190
 8697SOL     OW34559   5.917   0.703   4.591 -0.0469  0.0724  0.4484
 8697SOL    HW234560   5.869   0.620   4.589 -0.9109  0.5590 -0.9730
 8697SOL    HW334561   5.914   0.734   4.500 -0.1599  1.8906  1.0362
 8697SOL    MW434562   5.910   0.696   4.579 -0.1272  0.1478  0.1320
 8698SOL     OW34563   3.955   4.864   5.082  0.2215  0.5972 -0.0395
 8698SOL    HW234564   3.901   4.941   5.064  0.3416  0.2482 -2.1377
 8698SOL    HW334565   3.902   4.790   5.053  1.4304  0.1765 -1.2532
 8698SOL    MW434566   3.941   4.864   5.076 -0.0909  0.2032 -0.0782
 8699SOL     OW34567   0.335   0.235   2.258 -0.6442  0.1804  0.6367
 8699SOL    HW234568   0.276   0.221   2.184 -0.4752  1.0682  0.3221
 8699SOL    HW334569   0.279   0.273   2.326 -0.2691  2.0667 -0.0367
 8699SOL    MW434570   0.320   0.238   2.257  0.5134  0.1204 -0.1509
 8700SOL     OW34571   1.835   0.105   1.226  0.1890 -0.2512  0.1042
 8700SOL    HW234572   1.743   0.111   1.201  0.4137 -0.5314 -0.8473
 8700SOL    HW334573   1.846   0.016   1.260  0.0697 -0.1518  0.4069
 8700SOL    MW434574   1.825   0.094   1.227  0.4951 -0.0234 -0.5802
 8701SOL     OW34575   5.041   0.173   4.114 -0.3735  0.0026  0.2566
 8701SOL    HW234576   4.987   0.139   4.043  0.7077 -1.7952  0.2476
 8701SOL    HW334577   5.071   0.258   4.082 -1.6842  0.2144 -0.4863
 8701SOL    MW434578   5.038   0.180   4.101  0.1093 -0.1119 -0.5375
 8702SOL     OW34579   1.428   3.623   2.498  0.5561  0.4834 -0.0044
 8702SOL    HW234580   1.504   3.647   2.444  0.0679  1.5346 -0.2554
 8702SOL    HW334581   1.370   3.577   2.438  0.3619  0.9572 -0.1846
 8702SOL    MW434582   1.431   3.620   2.483  0.1999  0.1619  0.1298
 8703SOL     OW34583   2.193   1.640   2.707 -0.3176  0.2144 -0.7392
 8703SOL    HW234584   2.275   1.618   2.662  0.5159  0.5538  0.5727
 8703SOL    HW334585   2.219   1.658   2.797 -2.0237 -1.0151  0.0570
 8703SOL    MW434586   2.208   1.639   2.713  0.1110 -1.0162  0.1013
 8704SOL     OW34587   3.288   1.079   2.163 -0.1870 -0.2953  0.4312
 8704SOL    HW234588   3.194   1.069   2.178 -0.1874  1.6297  2.1791
 8704SOL    HW334589   3.323   0.989   2.167 -1.9659 -1.0916 -0.7706
 8704SOL    MW434590   3.281   1.066   2.166 -0.2035  0.2597 -0.1503
 8705SOL     OW34591   1.309   4.900   0.916  0.6111  0.1666 -0.6351
 8705SOL    HW234592   1.269   4.929   0.834  0.5375 -1.2588 -1.1483
 8705SOL    HW334593   1.395   4.865   0.889  0.6015 -0.2770 -0.1129
 8705SOL    MW434594   1.315   4.899   0.901 -0.7606 -0.3162  0.2763
 8706SOL     OW34595   1.006   3.988   1.102 -0.0080  0.3276  0.2336
 8706SOL    HW234596   1.094   3.949   1.107 -0.5862 -0.8749  2.0589
 8706SOL    HW334597   1.022   4.081   1.089  1.5813  0.2563  1.3619
 8706SOL    MW434598   1.020   3.995   1.101  0.0598 -0.2204 -0.4980
 8707SOL     OW34599   4.210   3.108   1.055  0.4855  0.3090 -0.0586
 8707SOL    HW234600   4.240   3.153   1.134  0.8807 -1.5200  0.8670
 8707SOL    HW334601   4.289   3.090   1.005  0.3849  0.1086 -0.1481
 8707SOL    MW434602   4.224   3.112   1.059  0.1991  0.3029  0.1446
 8708SOL     OW34603   1.228   3.974   3.759 -0.2229  0.4103 -0.3768
 8708SOL    HW234604   1.140   4.008   3.773 -0.1151  0.1046  1.2383
 8708SOL    HW334605   1.269   4.037   3.699 -1.2718  0.9801 -0.5209
 8708SOL    MW434606   1.222   3.987   3.753  0.1095  0.1856  0.1189
 8709SOL     OW34607   6.181   5.212   5.115 -0.0198  0.7616 -0.6143
 8709SOL    HW234608   6.235   5.266   5.172 -0.2738  2.3196 -1.7829
 8709SOL    HW334609   6.172   5.264   5.035  0.1279 -1.2301 -1.9937
 8709SOL    MW434610   6.187   5.226   5.112 -0.5528  0.4395  0.0517
 8710SOL     OW34611   4.192   0.013   2.267 -0.3229  0.1485 -0.1071
 8710SOL    HW234612   4.207   0.103   2.237 -0.4973  0.0255 -0.5785
 8710SOL    HW334613   4.101   0.012   2.296  0.4206  0.8109  2.4485
 8710SOL    MW434614   4.182   0.024   2.267  0.2652  0.0705  0.0960
 8711SOL     OW34615   0.451   2.682   4.141  0.0306 -0.1206  0.2530
 8711SOL    HW234616   0.486   2.693   4.230 -1.0142  0.0919  0.6572
 8711SOL    HW334617   0.528   2.672   4.086  0.7560  0.9576  1.0180
 8711SOL    MW434618   0.466   2.682   4.146  0.6740  0.1050 -0.0882
 8712SOL     OW34619   3.504   1.378   4.376 -0.5494 -0.1653  0.1256
 8712SOL    HW234620   3.594   1.354   4.397 -0.1601  0.2563 -1.0119
 8712SOL    HW334621   3.471   1.303   4.326 -0.8213 -0.3003  0.5032
 8712SOL    MW434622   3.511   1.365   4.372  0.1595  0.4280 -0.1094
 8713SOL     OW34623   3.912   2.683   1.475 -0.4333 -0.3159 -0.2982
 8713SOL    HW234624   3.976   2.752   1.495 -1.2932  0.3817  0.1070
 8713SOL    HW334625   3.965   2.608   1.448  0.5924 -0.0001  0.7733
 8713SOL    MW434626   3.928   2.682   1.474  0.2009 -0.0299  0.2316
 8714SOL     OW34627   4.450   2.039   0.294 -0.3582 -0.1186 -0.3279
 8714SOL    HW234628   4.505   2.103   0.339 -1.0762  0.1386  0.1902
 8714SOL    HW334629   4.427   2.081   0.210 -2.1152  0.9889  0.6502
 8714SOL    MW434630   4.454   2.053   0.289 -0.1439 -0.6632  0.4576
 8715SOL     OW34631   6.119   3.145   2.941  0.4663 -0.4029 -0.0051
 8715SOL    HW234632   6.192   3.179   2.992  0.4830 -0.2320 -0.1438
 8715SOL    HW334633   6.069   3.091   3.002  1.7651 -2.0872 -0.3549
 8715SOL    MW434634   6.122   3.142   2.956 -0.3755  0.1597 -0.4312
 8716SOL     OW34635   5.602   2.618   4.936 -0.0690  0.6196 -0.0768
 8716SOL    HW234636   5.650   2.636   4.855  0.6466  0.8303  0.3875
 8716SOL    HW334637   5.548   2.696   4.950 -0.2142  0.5710 -0.3611
 8716SOL    MW434638   5.601   2.631   4.927  0.1869  1.1935  0.1513
 8717SOL     OW34639   5.496   2.512   2.436 -0.2843  0.1559 -0.7205
 8717SOL    HW234640   5.504   2.417   2.427 -2.4788  0.1053 -3.1875
 8717SOL    HW334641   5.441   2.524   2.513  0.1606 -0.5407 -0.2738
 8717SOL    MW434642   5.490   2.501   2.445 -0.4694 -0.3995  0.0068
 8718SOL     OW34643   5.012   0.208   1.228  0.3176 -0.5750 -0.4584
 8718SOL    HW234644   5.053   0.234   1.146 -2.1895 -1.0377 -1.9854
 8718SOL    HW334645   4.966   0.126   1.206 -0.5141 -0.6385  1.3648
 8718SOL    MW434646   5.011   0.200   1.214 -0.2028 -0.4513  0.1849
 8719SOL     OW34647   6.184   3.180   4.375  0.2622  0.3773 -0.0809
 8719SOL    HW234648   6.242   3.199   4.301  0.4451 -0.1121 -0.0630
 8719SOL    HW334649   6.243   3.157   4.447  0.0803  0.7558  0.1952
 8719SOL    MW434650   6.200   3.180   4.375  0.2710  0.7580 -0.3668
 8720SOL     OW34651   0.202   4.542   3.752  0.7203 -0.5251  0.2487
 8720SOL    HW234652   0.258   4.534   3.675  0.8504 -0.7003  0.3595
 8720SOL    HW334653   0.222   4.463   3.804 -0.3865 -1.1316 -0.2083
 8720SOL    MW434654   0.212   4.530   3.749 -0.5694  0.5319 -0.5568
 8721SOL     OW34655   3.676   1.800   1.175 -0.2697  0.0760  0.2021
 8721SOL    HW234656   3.647   1.747   1.102 -0.3072  0.2431  0.0961
 8721SOL    HW334657   3.730   1.869   1.136 -0.6021  0.3897  0.2929
 8721SOL    MW434658   3.679   1.802   1.160  0.9487 -0.0043 -0.3182
 8722SOL     OW34659   3.035   0.187   2.330 -0.2371  0.1578  0.4173
 8722SOL    HW234660   3.045   0.227   2.416  0.3404 -0.2945  0.5647
 8722SOL    HW334661   2.978   0.248   2.282  0.3044  0.9535  0.7633
 8722SOL    MW434662   3.028   0.200   2.335 -0.5380 -0.2946  0.2288
 8723SOL     OW34663   1.497   0.938   5.940 -0.2392  0.3956 -0.2934
 8723SOL    HW234664   1.459   1.020   5.972 -0.1662  0.7405 -1.0501
 8723SOL    HW334665   1.542   0.901   6.015  0.3668  1.4397 -0.1213
 8723SOL    MW434666   1.498   0.944   5.954 -0.1292 -0.5377 -0.6694
 8724SOL     OW34667   3.602   4.759   0.178 -0.3347 -0.2161  0.1276
 8724SOL    HW234668   3.522   4.806   0.200 -0.0741 -0.2513  1.2256
 8724SOL    HW334669   3.596   4.678   0.228  0.2420 -0.3476 -0.0132
 8724SOL    MW434670   3.591   4.755   0.188 -0.3840 -0.2247 -0.0644
 8725SOL     OW34671   1.790   5.472   3.171 -0.2533  0.5881 -0.1972
 8725SOL    HW234672   1.841   5.508   3.098 -0.0129 -1.0560 -0.9032
 8725SOL    HW334673   1.716   5.430   3.128  0.9406 -2.1910  0.2350
 8725SOL    MW434674   1.787   5.471   3.155  0.4251  0.2690  0.1672
 8726SOL     OW34675   1.326   3.695   3.656  0.3206 -0.4867  0.6445
 8726SOL    HW234676   1.283   3.779   3.669  0.3436 -0.4533  0.5057
 8726SOL    HW334677   1.286   3.637   3.721 -1.0153 -0.8612 -0.4832
 8726SOL    MW434678   1.315   3.698   3.666  0.1005 -0.3328  0.6291
 8727SOL     OW34679   2.145   4.595   1.109  0.0549 -0.1616 -0.4604
 8727SOL    HW234680   2.056   4.565   1.088 -0.1692 -0.1122  0.3767
 8727SOL    HW334681   2.154   4.677   1.062 -0.4906  0.0260 -0.2464
 8727SOL    MW434682   2.134   4.602   1.100 -0.6056 -0.5139  0.0912
 8728SOL     OW34683   1.999   1.546   4.757  0.5998 -0.3906  0.7709
 8728SOL    HW234684   2.014   1.467   4.706 -1.0046  0.4806 -1.1743
 8728SOL    HW334685   2.087   1.575   4.784  1.8613  0.3018 -3.4165
 8728SOL    MW434686   2.013   1.540   4.754 -0.2390 -0.3409 -0.1270
 8729SOL     OW34687   4.804   3.300   5.672  0.1354 -0.0694 -0.3717
 8729SOL    HW234688   4.876   3.347   5.715  0.9153 -1.1932 -0.3878
 8729SOL    HW334689   4.846   3.254   5.599 -0.8314  0.2377 -1.1432
 8729SOL    MW434690   4.819   3.300   5.668  0.6981 -0.2220  0.3931
 8730SOL     OW34691   5.263   5.433   2.086  0.7762  0.2769  0.7977
 8730SOL    HW234692   5.181   5.464   2.048  0.3074 -0.4929  1.1495
 8730SOL    HW334693   5.326   5.436   2.014  0.2086  0.0033  0.2839
 8730SOL    MW434694   5.261   5.438   2.071 -1.8025  0.1319  0.6148
 8731SOL     OW34695   1.902   2.325   3.887  0.4405  0.6897  0.4776
 8731SOL    HW234696   1.972   2.267   3.860  0.6234  1.7984 -1.6862
 8731SOL    HW334697   1.855   2.277   3.955 -0.1468 -2.5273 -1.9541
 8731SOL    MW434698   1.905   2.311   3.892 -0.2725 -0.1257  0.2640
 8732SOL     OW34699   1.246   5.826   3.395 -0.3841  1.1105 -0.2501
 8732SOL    HW234700   1.180   5.791   3.456  2.1047 -1.4256  1.1994
 8732SOL    HW334701   1.249   5.919   3.415 -0.6597  0.6014  2.5833
 8732SOL    MW434702   1.238   5.834   3.405  0.1269 -0.2820 -0.4109
 8733SOL     OW34703   1.709   6.079   5.492 -0.4258 -0.6827  0.1366
 8733SOL    HW234704   1.614   6.069   5.504 -0.3202  0.3200  2.1352
 8733SOL    HW334705   1.734   6.003   5.439 -2.0040 -2.1729  1.4152
 8733SOL    MW434706   1.699   6.067   5.486  0.7381 -0.4507  0.1120
 8734SOL     OW34707   3.298   1.036   0.053 -0.2458 -0.4702  0.2988
 8734SOL    HW234708   3.356   0.975   0.008  0.1044 -1.0423  1.4923
 8734SOL    HW334709   3.336   1.045   0.141 -0.1352  1.6568  0.0949
 8734SOL    MW434710   3.311   1.029   0.059  0.0280  0.2951 -0.0689
 8735SOL     OW34711   2.071   3.212   5.755 -0.6600 -0.0662 -0.1914
 8735SOL    HW234712   2.137   3.158   5.711 -0.2026  0.3430 -0.0161
 8735SOL    HW334713   1.988   3.168   5.737 -0.1792 -1.4843  0.9480
 8735SOL    MW434714   2.069   3.199   5.747  0.1127  0.2417 -0.0567
 8736SOL     OW34715   1.262   0.644   4.648 -0.1803  0.3099 -0.2334
 8736SOL    HW234716   1.307   0.607   4.573  1.4805  0.3490  0.6987
 8736SOL    HW334717   1.321   0.712   4.681 -1.1056  0.6582  0.7791
 8736SOL    MW434718   1.275   0.648   4.643 -0.0253 -0.1687  0.7347
 8737SOL     OW34719   5.844   3.743   3.695  0.0251  0.2634  0.5759
 8737SOL    HW234720   5.864   3.787   3.612  0.5379 -1.3587 -0.1989
 8737SOL    HW334721   5.901   3.666   3.695 -1.9378 -1.2391  1.1706
 8737SOL    MW434722   5.854   3.739   3.684  0.0982 -0.5375  0.2713
 8738SOL     OW34723   5.289   0.322   3.572 -0.3270  0.0716  0.0666
 8738SOL    HW234724   5.366   0.279   3.536 -0.7570 -0.7534  0.1036
 8738SOL    HW334725   5.219   0.257   3.564 -0.6505  0.2010  1.5374
 8738SOL    MW434726   5.290   0.308   3.566 -0.1942  0.2018 -0.3918
 8739SOL     OW34727   4.618   2.575   6.298 -0.0457  0.9529 -0.4871
 8739SOL    HW234728   4.571   2.501   6.260 -1.2297  0.5891  1.5163
 8739SOL    HW334729   4.622   2.640   6.228  2.8788 -1.6560 -3.0344
 8739SOL    MW434730   4.612   2.574   6.284  0.2305 -0.2274  0.3663
 8740SOL     OW34731   5.284   0.051   4.050 -0.4695  0.0287 -1.0884
 8740SOL    HW234732   5.244  -0.033   4.028  1.3429 -1.6600  1.4714
 8740SOL    HW334733   5.210   0.108   4.070 -1.7190 -1.7085 -0.5159
 8740SOL    MW434734   5.269   0.047   4.050  0.2868  0.6545  0.1595
 8741SOL     OW34735   6.238   5.239   3.295  0.1907 -0.7677  0.1640
 8741SOL    HW234736   6.245   5.174   3.365 -1.5619  0.0993  1.2104
 8741SOL    HW334737   6.305   5.304   3.315 -0.4290 -0.4220  1.1828
 8741SOL    MW434738   6.248   5.239   3.307 -0.4028 -0.2227  0.0836
 8742SOL     OW34739   3.789   2.823   2.803  0.1289 -0.1891 -0.8449
 8742SOL    HW234740   3.798   2.901   2.749  0.4722 -0.7636 -1.6324
 8742SOL    HW334741   3.872   2.817   2.851 -0.5001  0.8007  0.4324
 8742SOL    MW434742   3.801   2.832   2.802 -0.0483  0.3106 -0.2976
 8743SOL     OW34743   4.238   5.932   5.886 -0.5252  0.6211  0.0085
 8743SOL    HW234744   4.217   6.023   5.908 -0.3056  0.5497  0.5237
 8743SOL    HW334745   4.320   5.914   5.933 -1.5848 -0.4636  1.5110
 8743SOL    MW434746   4.246   5.942   5.895  0.1430  0.6043  0.3218
 8744SOL     OW34747   0.073   1.135   2.711  0.2602 -0.1562  0.3400
 8744SOL    HW234748   0.096   1.225   2.687 -0.2692 -0.3856 -1.1148
 8744SOL    HW334749   0.154   1.100   2.749  1.1678  0.2500 -1.1255
 8744SOL    MW434750   0.087   1.143   2.713 -0.4933  0.0044  0.3644
 8745SOL     OW34751   6.060   3.219   5.660  0.2840 -0.1122  0.1273
 8745SOL    HW234752   5.999   3.200   5.731 -0.0494  1.0059  0.1594
 8745SOL    HW334753   6.085   3.310   5.674 -1.0238  0.6496 -2.0692
 8745SOL    MW434754   6.055   3.228   5.671 -0.1672 -0.3697 -0.7169
 8746SOL     OW34755   4.038   6.262   3.248  0.3678  0.1233 -0.0419
 8746SOL    HW234756   4.076   6.339   3.204 -0.9596  0.7270 -0.1754
 8746SOL    HW334757   4.091   6.252   3.327  0.0939  1.6674  0.3769
 8746SOL    MW434758   4.050   6.271   3.253  0.2111 -0.1171  0.1917
 8747SOL     OW34759   2.291   0.706   0.011 -0.2995  0.4747  0.1987
 8747SOL    HW234760   2.302   0.670   0.099 -0.9667  0.3202  0.2248
 8747SOL    HW334761   2.380   0.713  -0.023  0.0696  1.7231  1.3504
 8747SOL    MW434762   2.304   0.702   0.018 -0.3390 -0.3258  0.2506
 8748SOL     OW34763   0.002   5.195   2.880  0.3880  0.0001  0.6029
 8748SOL    HW234764  -0.069   5.232   2.933  0.6803  1.3549  0.0911
 8748SOL    HW334765  -0.039   5.173   2.797  0.1393 -1.2018  1.0267
 8748SOL    MW434766  -0.013   5.197   2.876  0.0847 -0.0295 -0.3032
 8749SOL     OW34767   1.800   5.186   2.889 -0.1233 -0.0939 -0.0001
 8749SOL    HW234768   1.785   5.169   2.982 -0.0973 -2.4664 -0.3691
 8749SOL    HW334769   1.716   5.167   2.847  0.2928 -0.6290 -0.6256
 8749SOL    MW434770   1.787   5.181   2.895 -0.9905 -0.1517  0.4122
 8750SOL     OW34771   6.427   3.700   0.459 -0.4997  0.3863 -0.2509
 8750SOL    HW234772   6.376   3.674   0.536  0.3822 -1.1807 -0.1450
 8750SOL    HW334773   6.479   3.775   0.488 -1.0205  0.5180  0.3387
 8750SOL    MW434774   6.427   3.707   0.473  0.1738 -0.8146 -0.0591
 8751SOL     OW34775   5.716   1.232   1.125 -0.3865 -0.7175 -0.4027
 8751SOL    HW234776   5.672   1.201   1.046 -0.5328 -1.0495 -0.1944
 8751SOL    HW334777   5.661   1.200   1.197 -1.1949  0.9933 -0.1903
 8751SOL    MW434778   5.703   1.224   1.124 -0.3070 -0.6433 -0.8807
 8752SOL     OW34779   0.452   4.928   3.547 -0.1034  0.0951  0.0711
 8752SOL    HW234780   0.405   5.004   3.512 -0.8723 -0.8846 -1.1105
 8752SOL    HW334781   0.418   4.917   3.635 -1.2708  0.0919 -0.3668
 8752SOL    MW434782   0.442   4.936   3.554  0.2631 -1.0631  0.2400
 8753SOL     OW34783   5.102   5.764   1.381 -0.1790  0.0588  0.2711
 8753SOL    HW234784   5.197   5.760   1.393 -0.0765 -0.1026 -0.5570
 8753SOL    HW334785   5.068   5.777   1.469  0.3741 -3.5599  1.1967
 8753SOL    MW434786   5.110   5.765   1.394 -0.3353  0.0451  0.6016
 8754SOL     OW34787   6.426   3.595   3.546  0.6730  0.2113  0.3743
 8754SOL    HW234788   6.477   3.579   3.625  2.9549 -0.2700 -1.1100
 8754SOL    HW334789   6.372   3.672   3.568  1.4272  0.2617  2.2784
 8754SOL    MW434790   6.426   3.603   3.559 -0.2740  0.3826  0.4944
 8755SOL     OW34791   3.224   4.616   4.830  0.1625  0.5016 -0.0030
 8755SOL    HW234792   3.304   4.643   4.785 -0.8929  4.5992  0.1720
 8755SOL    HW334793   3.153   4.656   4.778 -1.7457 -1.9257  0.5474
 8755SOL    MW434794   3.225   4.625   4.817  0.5314  0.4772 -0.5220
 8756SOL     OW34795   4.706   0.511   5.678  0.5953 -0.2714  0.2554
 8756SOL    HW234796   4.686   0.499   5.585  0.2411 -1.4585  0.4668
 8756SOL    HW334797   4.733   0.424   5.708  0.7022  0.0999  1.2700
 8756SOL    MW434798   4.707   0.498   5.669  0.0068  0.1808  0.0964
 8757SOL     OW34799   5.699   4.117   3.967 -0.0817 -0.2666  0.0899
 8757SOL    HW234800   5.660   4.171   3.898  0.7331 -1.3892 -1.3260
 8757SOL    HW334801   5.769   4.170   4.003 -0.9524  0.5993  0.5620
 8757SOL    MW434802   5.703   4.131   3.963  0.3939 -1.0568 -0.3467
 8758SOL     OW34803   5.536   4.020   0.045 -0.5749  0.4042 -0.1208
 8758SOL    HW234804   5.464   4.033   0.107 -1.2369 -0.3374 -0.7152
 8758SOL    HW334805   5.493   4.000  -0.038  0.3007 -0.9895 -0.2850
 8758SOL    MW434806   5.521   4.019   0.042  0.0315 -0.3832 -0.1001
 8759SOL     OW34807   1.133   0.091   4.724  0.2605 -0.1315  0.3935
 8759SOL    HW234808   1.084   0.051   4.653  1.2284 -2.0758  0.7591
 8759SOL    HW334809   1.216   0.118   4.684 -0.4879  1.8545  0.0875
 8759SOL    MW434810   1.138   0.089   4.710 -0.0027  0.5120  0.3152
 8760SOL     OW34811   2.796   5.513   1.838 -0.3677 -0.1760 -0.4971
 8760SOL    HW234812   2.828   5.472   1.757 -1.1717 -1.2422 -0.2945
 8760SOL    HW334813   2.709   5.545   1.815 -1.4931 -2.3443  0.4722
 8760SOL    MW434814   2.789   5.512   1.824  0.3534 -0.2309 -0.0998
 8761SOL     OW34815   4.190   4.481   3.226 -0.3108 -0.6987 -0.5578
 8761SOL    HW234816   4.195   4.400   3.277  3.4209 -1.4062 -1.7681
 8761SOL    HW334817   4.130   4.461   3.155 -0.2370 -2.0640 -0.2660
 8761SOL    MW434818   4.183   4.468   3.223 -0.2259 -0.2298 -0.1372
 8762SOL     OW34819   5.212   5.261   2.896  0.2115 -0.1800  0.1357
 8762SOL    HW234820   5.153   5.334   2.876 -0.2069 -0.3158  0.8268
 8762SOL    HW334821   5.244   5.280   2.984  0.5974 -0.5058  0.0634
 8762SOL    MW434822   5.208   5.273   2.905 -0.4588 -0.9431 -0.1099
 8763SOL     OW34823   3.038   0.582   2.919 -0.2952  0.0746 -0.0993
 8763SOL    HW234824   3.111   0.630   2.960 -1.0657  1.3797 -0.1988
 8763SOL    HW334825   3.055   0.490   2.940  0.5052  0.5063  1.2580
 8763SOL    MW434826   3.050   0.576   2.927  0.0773  0.1456  0.1384
 8764SOL     OW34827   5.470   6.159   3.345  0.5441  0.2480  0.1931
 8764SOL    HW234828   5.517   6.144   3.427 -1.4817  1.0414  1.5902
 8764SOL    HW334829   5.465   6.073   3.303  2.0967 -0.0600  0.6110
 8764SOL    MW434830   5.475   6.145   3.350  0.7893 -0.0816  0.8771
 8765SOL     OW34831   1.985   3.748   3.186 -0.3233  0.0841 -0.2793
 8765SOL    HW234832   2.000   3.801   3.108 -1.6369  0.5792 -0.2248
 8765SOL    HW334833   1.896   3.714   3.174 -0.3676 -0.1942  0.7900
 8765SOL    MW434834   1.975   3.750   3.174  0.4326  0.2238 -0.4625
 8766SOL     OW34835   0.084   3.187   5.442  0.0125 -0.1608 -1.0686
 8766SOL    HW234836   0.131   3.142   5.513 -0.0411  1.3810 -0.0137
 8766SOL    HW334837  -0.008   3.164   5.455 -0.0040  0.1676 -0.5862
 8766SOL    MW434838   0.078   3.178   5.453  0.0243  0.3711 -0.0682
 8767SOL     OW34839   2.549   5.595   5.747  0.3363  0.5915 -0.5430
 8767SOL    HW234840   2.474   5.577   5.802  1.4072 -1.6009  0.2847
 8767SOL    HW334841   2.524   5.674   5.698 -2.1227  0.4147  0.3052
 8767SOL    MW434842   2.536   5.603   5.747  0.2420 -0.9279 -0.1668
 8768SOL     OW34843   1.752   1.172   3.949 -0.0935  0.6358  0.0875
 8768SOL    HW234844   1.841   1.206   3.941  0.1281  0.2349  0.7887
 8768SOL    HW334845   1.762   1.087   3.993 -0.8510  0.7422  0.4795
 8768SOL    MW434846   1.765   1.165   3.954  0.3018 -0.6694 -0.6817
 8769SOL     OW34847   5.788   3.136   3.999 -0.3540  0.5198  0.3825
 8769SOL    HW234848   5.834   3.058   4.031  0.5861  1.3969  1.2560
 8769SOL    HW334849   5.808   3.203   4.064 -0.8861  1.5798 -0.5198
 8769SOL    MW434850   5.797   3.134   4.012 -0.3369  0.6027  0.8294
 8770SOL     OW34851   2.463   5.578   4.933 -0.2161  0.3796 -0.1889
 8770SOL    HW234852   2.525   5.507   4.948  1.9677  1.8633 -1.5016
 8770SOL    HW334853   2.421   5.556   4.849 -1.7998 -0.7709  0.8393
 8770SOL    MW434854   2.465   5.566   4.924  0.7253  0.2476 -0.2637
 8771SOL     OW34855   1.370   3.670   6.102 -0.5475 -0.1143  0.0148
 8771SOL    HW234856   1.465   3.669   6.088 -0.7786 -1.3391 -1.8009
 8771SOL    HW334857   1.360   3.694   6.194  1.4270  2.0192 -0.2374
 8771SOL    MW434858   1.381   3.673   6.113 -0.1415 -0.2594 -0.3770
 8772SOL     OW34859   3.182   0.799   1.780 -0.0385  0.2960 -0.2794
 8772SOL    HW234860   3.189   0.894   1.785 -1.6153  0.3837  0.9334
 8772SOL    HW334861   3.262   0.766   1.822 -0.1611  1.0923  0.6062
 8772SOL    MW434862   3.193   0.807   1.786  0.7025 -0.3296 -0.1087
 8773SOL     OW34863   3.137   4.197   4.265 -0.0269 -0.4886 -0.7637
 8773SOL    HW234864   3.215   4.253   4.267 -0.5957  0.3396 -1.2358
 8773SOL    HW334865   3.149   4.143   4.187 -1.1374  1.4667 -2.3589
 8773SOL    MW434866   3.149   4.197   4.255  0.1657 -0.0372 -0.5977
 8774SOL     OW34867   0.359   0.348   4.793 -0.0694  0.5493  0.7964
 8774SOL    HW234868   0.437   0.396   4.764 -0.6214  0.7716 -0.3706
 8774SOL    HW334869   0.290   0.414   4.794 -0.2875  0.3090  1.6389
 8774SOL    MW434870   0.360   0.363   4.789 -0.0053 -0.1649  0.3373
 8775SOL     OW34871   6.270   3.630   0.894 -0.0833  0.1375 -0.0986
 8775SOL    HW234872   6.299   3.606   0.982 -0.7839 -0.8226 -0.1131
 8775SOL    HW334873   6.177   3.611   0.893 -1.0446  3.9855  0.2153
 8775SOL    MW434874   6.262   3.624   0.905  0.1787  0.4123 -0.7170
 8776SOL     OW34875   3.533   5.304   2.371 -0.0915 -0.4087 -0.1332
 8776SOL    HW234876   3.619   5.283   2.408  0.1685  0.1614 -0.4024
 8776SOL    HW334877   3.488   5.352   2.441 -0.1261 -0.5584 -0.0531
 8776SOL    MW434878   3.538   5.308   2.385 -0.1266  0.3113 -0.1439
 8777SOL     OW34879   0.897   3.620   0.855 -0.0730  0.1317 -0.0836
 8777SOL    HW234880   0.839   3.547   0.877  0.0637 -0.0358 -0.2714
 8777SOL    HW334881   0.853   3.665   0.783  0.2037 -0.2132 -0.4737
 8777SOL    MW434882   0.884   3.617   0.848 -0.4491  0.1301  0.2084
 8778SOL     OW34883   0.088   2.130   5.115 -0.5145 -0.1617 -0.2124
 8778SOL    HW234884   0.092   2.167   5.203 -1.4251 -0.2702 -0.1145
 8778SOL    HW334885   0.061   2.204   5.060  0.3607 -0.0162 -0.4588
 8778SOL    MW434886   0.085   2.145   5.119 -0.3162 -0.1544  0.5651
 8779SOL     OW34887   5.311   5.251   4.289  0.1376 -0.2380  0.1873
 8779SOL    HW234888   5.258   5.306   4.231  1.4527 -0.0776 -0.8902
 8779SOL    HW334889   5.347   5.183   4.233  1.6861  0.0943  0.7274
 8779SOL    MW434890   5.308   5.249   4.274 -0.3973 -0.0516 -0.4195
 8780SOL     OW34891   2.887   3.570   3.907 -0.7028 -0.0250 -0.3363
 8780SOL    HW234892   2.981   3.584   3.909 -0.8438  0.9448  1.6846
 8780SOL    HW334893   2.874   3.482   3.942 -0.5609 -0.1289 -0.5437
 8780SOL    MW434894   2.897   3.560   3.912  0.4099 -0.4947 -0.5811
 8781SOL     OW34895   3.226   4.819   1.425 -1.0969  0.0190  0.7324
 8781SOL    HW234896   3.277   4.838   1.504  0.3377 -1.3535  0.1904
 8781SOL    HW334897   3.201   4.727   1.433 -0.6799 -0.2304 -0.5212
 8781SOL    MW434898   3.230   4.809   1.436 -0.0959 -0.1905  0.1025
 8782SOL     OW34899   3.271   3.072   5.996 -0.4753  0.1557  0.1222
 8782SOL    HW234900   3.216   2.994   6.003  1.0418 -0.9278  0.6310
 8782SOL    HW334901   3.267   3.096   5.904 -1.3919 -0.1865  0.0619
 8782SOL    MW434902   3.263   3.065   5.985 -0.3151 -0.0261  0.0894
 8783SOL     OW34903   4.157   5.129   0.044 -0.2798  0.2038 -0.2323
 8783SOL    HW234904   4.162   5.118  -0.051 -1.2244 -0.5073 -0.2207
 8783SOL    HW334905   4.099   5.204   0.057  0.5620  0.8725 -0.2110
 8783SOL    MW434906   4.150   5.137   0.033  0.1447  0.4773 -0.0723
 8784SOL     OW34907   3.295   0.207   1.961  0.0366 -0.1932 -0.5105
 8784SOL    HW234908   3.240   0.284   1.950  1.9044  1.2797 -0.1219
 8784SOL    HW334909   3.376   0.241   1.999  1.3661 -2.1714 -1.3998
 8784SOL    MW434910   3.299   0.222   1.965 -0.1426  0.5161 -0.6651
 8785SOL     OW34911   5.302   3.543   1.993  0.5473 -0.4912 -0.0164
 8785SOL    HW234912   5.330   3.631   1.970 -1.0458  0.3015  0.8818
 8785SOL    HW334913   5.367   3.512   2.057 -0.2889  1.1267  1.7275
 8785SOL    MW434914   5.314   3.550   1.999 -0.6804 -0.0523 -0.0160
 8786SOL     OW34915   2.925   5.959   5.283 -0.0340  0.3541 -0.3768
 8786SOL    HW234916   2.927   5.927   5.192  0.4390  0.4135 -0.3916
 8786SOL    HW334917   2.943   5.882   5.336  1.5368  0.6432 -0.4337
 8786SOL    MW434918   2.928   5.945   5.278 -0.0553 -0.2861  0.8698
 8787SOL     OW34919   3.950   3.960   5.834 -0.3809  0.5114 -0.3839
 8787SOL    HW234920   3.994   3.966   5.750  0.0104 -2.0272 -0.4393
 8787SOL    HW334921   4.019   3.971   5.899 -0.3807  0.7394 -0.4250
 8787SOL    MW434922   3.965   3.962   5.832  0.0486  0.4313 -0.4651
 8788SOL     OW34923   4.878   4.199   1.012 -0.5286  0.1187  0.0045
 8788SOL    HW234924   4.783   4.197   0.998 -0.6711  3.5493 -0.4442
 8788SOL    HW334925   4.888   4.220   1.105 -0.1604 -0.4949  0.1121
 8788SOL    MW434926   4.867   4.201   1.023 -0.4925 -0.1231 -0.4087
 8789SOL     OW34927   2.939   0.499   0.033 -0.1949 -0.0826  0.3575
 8789SOL    HW234928   2.855   0.496   0.078  0.1427  0.1153  1.0135
 8789SOL    HW334929   2.936   0.581  -0.018  0.0224  0.4939  1.2430
 8789SOL    MW434930   2.928   0.510   0.032  0.1076  0.3398  0.3285
 8790SOL     OW34931   6.378   1.564   5.762  0.1424 -0.5192 -0.0408
 8790SOL    HW234932   6.289   1.598   5.764 -0.0856 -0.9679 -1.3259
 8790SOL    HW334933   6.432   1.638   5.734 -0.4855 -1.3153 -3.8732
 8790SOL    MW434934   6.373   1.578   5.759 -0.6824  0.3991  0.0708
 8791SOL     OW34935   4.995   2.599   4.478  0.6492  0.0567  0.0983
 8791SOL    HW234936   4.907   2.578   4.510  0.8209 -1.1659 -0.1683
 8791SOL    HW334937   5.048   2.523   4.503  2.5494  2.3061  3.6150
 8791SOL    MW434938   4.990   2.586   4.485  0.0773 -1.1381 -0.2273
 8792SOL     OW34939   6.199   2.473   2.125  0.1165 -0.6553  0.1724
 8792SOL    HW234940   6.274   2.421   2.095 -0.8147 -2.2937  0.5658
 8792SOL    HW334941   6.231   2.516   2.205  0.7302 -1.1186  0.1882
 8792SOL    MW434942   6.213   2.472   2.132 -0.2385  0.1446  0.2425
 8793SOL     OW34943   4.695   0.325   3.799 -0.3098 -0.4559  0.6048
 8793SOL    HW234944   4.623   0.273   3.763 -1.3288  1.5105 -0.3786
 8793SOL    HW334945   4.768   0.263   3.808 -1.5633 -2.1012 -0.1220
 8793SOL    MW434946   4.695   0.310   3.795  0.0232 -0.2014 -0.6204
 8794SOL     OW34947   0.119   3.834   3.967  0.4418 -0.2424 -0.0307
 8794SOL    HW234948   0.117   3.804   4.058  1.7994  0.4509  0.2513
 8794SOL    HW334949   0.048   3.786   3.924 -2.2653  1.6029  2.0439
 8794SOL    MW434950   0.109   3.824   3.973  0.0220  0.0440 -0.1861
 8795SOL     OW34951   6.288   0.290   4.906  0.8024 -0.4717  0.0217
 8795SOL    HW234952   6.276   0.326   4.994 -0.6344 -1.0723  0.0915
 8795SOL    HW334953   6.200   0.286   4.870  1.0526 -2.6582 -0.4799
 8795SOL    MW434954   6.275   0.294   4.913  0.0792 -0.1876 -0.2724
 8796SOL     OW34955   4.935   3.813   2.102  0.2571  0.1749 -0.1691
 8796SOL    HW234956   5.006   3.877   2.101  0.3488  0.0736 -0.2247
 8796SOL    HW334957   4.955   3.754   2.030  1.1167 -0.9240  0.9163
 8796SOL    MW434958   4.947   3.813   2.093 -0.2155  0.1772 -0.3073
 8797SOL     OW34959   6.343   1.027   1.387  0.1730 -0.3120  0.3667
 8797SOL    HW234960   6.319   0.986   1.304 -0.4973 -0.4907  0.6454
 8797SOL    HW334961   6.333   0.957   1.452 -1.3319  0.3610  0.9014
 8797SOL    MW434962   6.338   1.012   1.385  0.2391 -0.6659  0.2663
 8798SOL     OW34963   2.698   1.790   5.447  0.3338  0.3516  0.1188
 8798SOL    HW234964   2.738   1.753   5.526 -0.7243  1.7288  1.3678
 8798SOL    HW334965   2.647   1.717   5.410  0.5074 -0.2164  0.9495
 8798SOL    MW434966   2.696   1.775   5.453 -0.3435  0.0197  0.1334
 8799SOL     OW34967   3.347   2.956   0.165 -0.0425  0.8386  0.0235
 8799SOL    HW234968   3.327   2.925   0.077 -0.3251 -1.2203  0.7585
 8799SOL    HW334969   3.275   3.016   0.186 -1.7727 -1.1356  0.0190
 8799SOL    MW434970   3.334   2.960   0.157  0.4697 -0.5386  0.4550
 8800SOL     OW34971   2.869   0.608   3.628 -0.5459  0.0603 -0.1784
 8800SOL    HW234972   2.923   0.534   3.602  1.4292  1.2150  0.4884
 8800SOL    HW334973   2.884   0.618   3.722 -2.5643 -0.0642  0.2121
 8800SOL    MW434974   2.878   0.600   3.637  0.2054 -0.1739  0.3212
 8801SOL     OW34975   2.021   1.333   0.427 -0.2009  0.1212 -0.6990
 8801SOL    HW234976   2.034   1.282   0.507  0.7010  2.0355  0.4646
 8801SOL    HW334977   1.930   1.361   0.432 -0.6887 -1.2646 -1.3242
 8801SOL    MW434978   2.011   1.330   0.438  0.2113 -0.3813  0.2704
 8802SOL     OW34979   0.071   3.199   6.330 -0.3869 -0.0088 -0.2640
 8802SOL    HW234980  -0.014   3.155   6.341 -0.7368  0.6331 -0.3066
 8802SOL    HW334981   0.128   3.160   6.396 -0.2260 -1.6244 -1.3131
 8802SOL    MW434982   0.067   3.188   6.340  0.1728 -0.3498 -0.2693
 8803SOL     OW34983   2.351   0.269   4.779 -0.4231 -0.1505 -0.6681
 8803SOL    HW234984   2.285   0.277   4.849  1.3233 -1.3689  1.2242
 8803SOL    HW334985   2.431   0.305   4.818  1.1050 -2.6842 -1.2967
 8803SOL    MW434986   2.353   0.275   4.793 -0.3869  1.0797 -0.1213
 8804SOL     OW34987   0.993   0.249   3.127  0.4744  0.0055 -0.1585
 8804SOL    HW234988   0.917   0.305   3.111  0.0043 -1.0825 -1.9764
 8804SOL    HW334989   0.979   0.214   3.215 -1.4752 -0.6806 -0.6911
 8804SOL    MW434990   0.981   0.252   3.137 -0.4509 -0.1608 -0.6044
 8805SOL     OW34991   4.267   4.761   0.079  0.4079 -0.2253  0.3580
 8805SOL    HW234992   4.242   4.771   0.171  0.8542 -0.1770  0.4762
 8805SOL    HW334993   4.344   4.705   0.081  1.6129  1.3665  0.1739
 8805SOL    MW434994   4.273   4.754   0.092 -0.5940 -0.3811 -0.2412
 8806SOL     OW34995   0.420   3.387   6.366  0.7184 -0.6245 -0.2490
 8806SOL    HW234996   0.476   3.465   6.367  0.6283 -0.5628  0.1809
 8806SOL    HW334997   0.331   3.422   6.357  0.6001 -0.6218  0.7815
 8806SOL    MW434998   0.415   3.402   6.365 -0.0294 -0.3051  0.0887
 8807SOL     OW34999   3.403   5.354   6.192  0.3615  0.2386  0.1455
 8807SOL    HW235000   3.309   5.351   6.209  0.0258 -0.0287 -1.5843
 8807SOL    HW335001   3.413   5.320   6.103  1.9749  1.2996 -0.1275
 8807SOL    MW435002   3.392   5.349   6.183 -0.0900 -0.0285  0.1142
 8808SOL     OW35003   6.386   6.282   3.170 -0.3258  0.2641  0.4535
 8808SOL    HW235004   6.458   6.320   3.119 -0.7718 -1.6331 -1.7715
 8808SOL    HW335005   6.405   6.308   3.260  2.5490  0.7413 -0.1596
 8808SOL    MW435006   6.398   6.291   3.175  0.0021 -0.1882 -0.5091
 8809SOL     OW35007   5.359   3.506   2.647  0.4453 -0.5159  0.4028
 8809SOL    HW235008   5.429   3.525   2.709  0.1559 -1.9574  1.2022
 8809SOL    HW335009   5.300   3.581   2.655  2.0098  0.9067 -0.5387
 8809SOL    MW435010   5.360   3.518   2.656 -0.4980 -0.4003  0.5492
 8810SOL     OW35011   2.938   3.883   6.361 -0.1212 -0.4782  0.4675
 8810SOL    HW235012   2.925   3.790   6.345 -0.5212 -0.4112  0.3801
 8810SOL    HW335013   2.867   3.926   6.312  0.9504 -0.0382 -0.7470
 8810SOL    MW435014   2.927   3.877   6.352 -0.0154 -0.2577 -0.0302
 8811SOL     OW35015   0.655   0.565   6.442  0.0587 -0.2248  0.4833
 8811SOL    HW235016   0.660   0.481   6.398  1.6821 -0.6021  1.3146
 8811SOL    HW335017   0.708   0.624   6.387  1.0262 -0.3905  1.2053
 8811SOL    MW435018   0.663   0.562   6.429 -0.4269 -0.4513 -0.4586
 8812SOL     OW35019   4.890   6.094   3.635 -0.3672 -0.2430  0.4409
 8812SOL    HW235020   4.930   6.097   3.721  0.2482 -0.9971  0.1987
 8812SOL    HW335021   4.900   6.003   3.607 -1.4832 -0.2519  0.0043
 8812SOL    MW435022   4.897   6.082   3.642 -0.2018  0.1610  0.1777
 8813SOL     OW35023   4.235   0.448   0.592  0.2181  0.0991 -0.6827
 8813SOL    HW235024   4.285   0.409   0.521 -0.0765  0.6427 -1.1959
 8813SOL    HW335025   4.254   0.393   0.668  1.4470  0.1918 -0.9102
 8813SOL    MW435026   4.244   0.436   0.593  0.2684  0.4571 -0.0069
 8814SOL     OW35027   0.156   5.462   4.501  0.2237 -0.2956  0.2108
 8814SOL    HW235028   0.202   5.518   4.439 -0.8155 -1.2782 -1.5234
 8814SOL    HW335029   0.155   5.512   4.583  0.2864  1.7166 -0.9686
 8814SOL    MW435030   0.162   5.476   4.504  0.2611 -0.2942 -0.1275
 8815SOL     OW35031   2.156   3.722   2.247  0.2529 -0.2323  0.2313
 8815SOL    HW235032   2.105   3.678   2.179  0.9977  0.1012 -0.5504
 8815SOL    HW335033   2.213   3.782   2.200 -1.1694  2.0856  1.3035
 8815SOL    MW435034   2.156   3.724   2.232 -0.3883 -0.4103  0.0318
 8816SOL     OW35035   5.666   6.012   2.681 -0.5379  0.4006  0.1511
 8816SOL    HW235036   5.631   5.923   2.686 -1.2708  0.5259 -1.8860
 8816SOL    HW335037   5.754   6.000   2.645 -0.4555  0.4699  0.3300
 8816SOL    MW435038   5.673   5.998   2.677 -0.5159 -0.2627  0.0908
 8817SOL     OW35039   5.832   5.760   0.335  0.4217  0.3024  0.2342
 8817SOL    HW235040   5.742   5.734   0.317  0.5709  0.2904 -0.5171
 8817SOL    HW335041   5.857   5.708   0.412 -0.0586 -0.0316  0.1658
 8817SOL    MW435042   5.823   5.749   0.343 -0.4382  0.3703 -0.0820
 8818SOL     OW35043   4.445   1.405   2.144 -0.0667  0.2617  1.1173
 8818SOL    HW235044   4.429   1.311   2.139 -2.3929  0.5623  1.6767
 8818SOL    HW335045   4.537   1.413   2.169  0.7269 -1.7976 -0.8178
 8818SOL    MW435046   4.455   1.394   2.147 -0.0627  0.6154  0.6780
 8819SOL     OW35047   0.499   1.311   5.340  0.0276  0.0088  0.3052
 8819SOL    HW235048   0.502   1.356   5.424 -0.2131  0.2622  0.1802
 8819SOL    HW335049   0.589   1.312   5.309  0.0420  0.3116  0.3529
 8819SOL    MW435050   0.511   1.317   5.347 -0.4428  0.2116  0.1037
 8820SOL     OW35051   4.050   0.264   0.996  0.3346  0.6752 -0.4146
 8820SOL    HW235052   3.977   0.242   1.053 -0.5492  1.8444 -1.0398
 8820SOL    HW335053   4.031   0.219   0.914  0.6955  0.3895 -0.3408
 8820SOL    MW435054   4.038   0.255   0.992 -0.4270 -0.3076 -0.1747
 8821SOL     OW35055   0.884   2.015   5.130 -0.0621  0.1184 -0.3601
 8821SOL    HW235056   0.950   2.071   5.088 -1.2740 -0.5477 -3.4802
 8821SOL    HW335057   0.802   2.041   5.087 -1.1373 -1.8981  0.3834
 8821SOL    MW435058   0.882   2.026   5.119  0.2215 -0.0251  0.5832
 8822SOL     OW35059   3.085   1.397   3.656  0.0694 -0.2161 -0.6953
 8822SOL    HW235060   3.068   1.427   3.567 -0.8385  0.8905 -0.1811
 8822SOL    HW335061   3.074   1.302   3.652 -1.3440 -0.0542 -1.4902
 8822SOL    MW435062   3.081   1.389   3.644  0.1242 -0.1653  0.2213
 8823SOL     OW35063   3.030   3.605   4.628 -0.5785  0.0857 -0.1166
 8823SOL    HW235064   3.106   3.554   4.600 -0.1518  0.3200  0.5952
 8823SOL    HW335065   2.974   3.541   4.672 -0.7286 -0.0556 -0.5044
 8823SOL    MW435066   3.033   3.590   4.630 -0.0333 -0.3040  0.0140
 8824SOL     OW35067   1.711   0.557   3.363 -0.7113 -0.1437 -0.1732
 8824SOL    HW235068   1.627   0.511   3.362 -0.3353 -0.8499  0.1002
 8824SOL    HW335069   1.767   0.505   3.305 -0.5570  0.5030 -0.6026
 8824SOL    MW435070   1.707   0.544   3.356 -0.8503 -0.1430  0.3821
 8825SOL     OW35071   5.876   1.737   6.246 -0.1470  0.2717 -0.3941
 8825SOL    HW235072   5.831   1.818   6.268 -0.8262 -0.4770  1.0735
 8825SOL    HW335073   5.826   1.701   6.172  0.7110  1.6010 -1.6891
 8825SOL    MW435074   5.864   1.743   6.239  0.0803 -0.0846 -0.4587
 8826SOL     OW35075   2.826   2.553   3.239  0.3772 -0.1036 -0.3585
 8826SOL    HW235076   2.792   2.560   3.328 -0.7723  0.5413 -0.8159
 8826SOL    HW335077   2.854   2.462   3.230  0.6652 -0.1296  0.7065
 8826SOL    MW435078   2.825   2.542   3.250 -0.3214 -0.0835  0.3182
 8827SOL     OW35079   4.118   1.341   1.138 -0.2300  0.2099  0.0797
 8827SOL    HW235080   4.105   1.430   1.171  1.4048  0.0963  1.1127
 8827SOL    HW335081   4.077   1.285   1.203  0.7167  0.1239  0.6300
 8827SOL    MW435082   4.111   1.346   1.151 -0.1744  0.5230  0.6125
 8828SOL     OW35083   4.662   2.665   4.593  0.1650  0.2280  0.1454
 8828SOL    HW235084   4.653   2.662   4.498  0.2462 -0.5872  0.1538
 8828SOL    HW335085   4.603   2.596   4.625 -0.8935  1.3880  0.7752
 8828SOL    MW435086   4.653   2.656   4.585 -0.4935 -0.3524  0.4545
 8829SOL     OW35087   1.562   2.196   6.228 -0.2658 -0.2031  0.2263
 8829SOL    HW235088   1.476   2.154   6.222 -0.2082 -0.1934 -1.2093
 8829SOL    HW335089   1.542   2.290   6.231 -0.3229 -0.2139  0.1995
 8829SOL    MW435090   1.548   2.203   6.227 -0.4042  0.4697  0.5945
 8830SOL     OW35091   4.250   3.696   3.937 -0.1399  0.4028 -0.0044
 8830SOL    HW235092   4.249   3.614   3.888  1.2572  0.2758  0.1346
 8830SOL    HW335093   4.222   3.762   3.874 -2.0944 -0.2578  0.1084
 8830SOL    MW435094   4.246   3.694   3.922  0.3764  0.1391 -0.7874
 8831SOL     OW35095   0.215   6.078   1.724  0.0963 -0.1102  0.2179
 8831SOL    HW235096   0.224   6.035   1.638 -0.9483  0.0883 -0.0075
 8831SOL    HW335097   0.201   6.170   1.702  1.6791  0.2738  0.6804
 8831SOL    MW435098   0.214   6.084   1.710 -0.2062  0.2753  0.9403
 8832SOL     OW35099   2.162   5.207   6.148 -0.4527 -0.3723  0.6369
 8832SOL    HW235100   2.222   5.233   6.216 -1.2579  0.9341  0.8741
 8832SOL    HW335101   2.132   5.120   6.174  1.8155 -1.3818  0.1390
 8832SOL    MW435102   2.166   5.199   6.160 -0.8329 -0.7405 -0.1952
 8833SOL     OW35103   5.267   1.651   0.683  0.1495 -0.0187 -0.0226
 8833SOL    HW235104   5.238   1.741   0.671  1.2213  0.1838 -1.4586
 8833SOL    HW335105   5.253   1.609   0.597  0.5853 -0.9287  0.3319
 8833SOL    MW435106   5.261   1.657   0.670  0.0958 -0.3680  0.5088
 8834SOL     OW35107   4.497   2.096   1.872 -0.7611 -0.4317  0.3130
 8834SOL    HW235108   4.404   2.102   1.891 -0.9255 -0.5460 -0.4399
 8834SOL    HW335109   4.507   2.141   1.788 -0.2593 -1.0865  0.0174
 8834SOL    MW435110   4.486   2.103   1.864  0.1622  0.1852  0.0622
 8835SOL     OW35111   4.360   4.297   0.590  0.2733  0.7751  0.4660
 8835SOL    HW235112   4.404   4.219   0.556  0.7650  0.7200  1.2216
 8835SOL    HW335113   4.317   4.335   0.513 -1.1327 -0.9888  0.3288
 8835SOL    MW435114   4.360   4.292   0.575  0.6696  0.1742  0.3875
 8836SOL     OW35115   2.265   1.650   6.399  0.1167  0.0592 -0.0934
 8836SOL    HW235116   2.206   1.584   6.361 -0.1674 -0.4222  1.1106
 8836SOL    HW335117   2.216   1.732   6.393 -0.0750 -0.0785 -0.4249
 8836SOL    MW435118   2.250   1.652   6.393 -0.0689  0.3354 -0.5554
 8837SOL     OW35119   0.212   1.611   3.448  0.0949 -0.2792  0.0958
 8837SOL    HW235120   0.215   1.628   3.542 -0.9065  0.5032  0.0121
 8837SOL    HW335121   0.126   1.570   3.434  0.8962 -1.8910 -0.2710
 8837SOL    MW435122   0.201   1.608   3.458  0.2128  0.0820 -0.0929
 8838SOL     OW35123   6.059   1.714   2.379 -0.0594 -0.0791 -0.5034
 8838SOL    HW235124   5.967   1.698   2.355  0.1895 -1.1250 -0.8032
 8838SOL    HW335125   6.054   1.777   2.451 -1.0049 -0.0338 -0.5939
 8838SOL    MW435126   6.046   1.721   2.385  0.2555 -0.0196  0.3989
 8839SOL     OW35127   3.992   1.227   1.357 -0.0952 -0.1659 -0.3460
 8839SOL    HW235128   4.040   1.147   1.375 -0.6815 -0.0442  2.1305
 8839SOL    HW335129   3.900   1.202   1.363 -0.3375  0.2897 -1.6979
 8839SOL    MW435130   3.986   1.213   1.360  0.0569 -0.1277 -0.4387
 8840SOL     OW35131   3.193   5.637   5.053 -0.5831  0.4720 -0.4333
 8840SOL    HW235132   3.202   5.553   5.098 -1.7592  0.4764 -0.1652
 8840SOL    HW335133   3.264   5.691   5.087  0.3107 -0.4693 -0.7531
 8840SOL    MW435134   3.204   5.633   5.063 -0.0630  0.2831 -0.0934
 8841SOL     OW35135   3.001   0.482   1.178  0.1238  0.4601 -0.4027
 8841SOL    HW235136   3.089   0.470   1.143 -0.6279  0.4968 -2.4476
 8841SOL    HW335137   3.012   0.480   1.273  2.1174 -1.0173 -0.6100
 8841SOL    MW435138   3.014   0.480   1.186 -0.5319  0.1350  0.0277
 8842SOL     OW35139   6.369   1.455   4.450  0.4519 -0.3690 -0.2653
 8842SOL    HW235140   6.460   1.479   4.464 -0.0946  0.2789  2.8248
 8842SOL    HW335141   6.332   1.530   4.401  1.3683 -0.3104 -0.8947
 8842SOL    MW435142   6.376   1.468   4.445 -0.3037 -0.9256  0.6729
 8843SOL     OW35143   1.550   3.136   6.393 -0.6757 -0.2761 -0.2443
 8843SOL    HW235144   1.570   3.147   6.300  0.4531 -0.3299 -0.0231
 8843SOL    HW335145   1.455   3.121   6.396 -0.6642 -0.6716 -1.4195
 8843SOL    MW435146   1.540   3.135   6.381  0.2359 -0.1973 -0.4797
 8844SOL     OW35147   2.996   2.495   6.105 -0.2884 -0.3363 -0.6092
 8844SOL    HW235148   3.028   2.499   6.195  1.2920  1.5664 -1.1685
 8844SOL    HW335149   3.029   2.412   6.071  0.4853 -0.3291  0.0994
 8844SOL    MW435150   3.005   2.485   6.112  1.2655  0.3286  0.5726
 8845SOL     OW35151   3.947   5.819   3.518 -0.4127 -0.4245 -0.2126
 8845SOL    HW235152   4.001   5.860   3.586  0.5255 -0.7880 -0.7121
 8845SOL    HW335153   3.925   5.891   3.459 -0.1290 -0.3393 -0.2189
 8845SOL    MW435154   3.951   5.834   3.519  0.1053 -0.1895  0.5184
 8846SOL     OW35155   5.621   5.523   3.036  0.0321 -0.0835 -0.2661
 8846SOL    HW235156   5.681   5.493   2.968  0.8355 -0.2708  0.5117
 8846SOL    HW335157   5.666   5.598   3.076  0.8853 -1.6900  1.9279
 8846SOL    MW435158   5.635   5.529   3.032 -0.4404 -0.2064  0.0708
 8847SOL     OW35159   2.002   6.412   5.065 -0.2389 -0.1412  0.4872
 8847SOL    HW235160   1.918   6.449   5.092 -0.2544  1.0302 -1.0335
 8847SOL    HW335161   2.049   6.485   5.024  0.8212 -1.1718 -0.2076
 8847SOL    MW435162   1.997   6.426   5.063  0.5366  0.1359  0.5620
 8848SOL     OW35163   2.817   3.561   5.347 -0.1167  0.3176  0.5315
 8848SOL    HW235164   2.771   3.568   5.264 -0.8552 -0.8182  0.8262
 8848SOL    HW335165   2.906   3.534   5.323  0.2696  1.9159  0.0052
 8848SOL    MW435166   2.823   3.559   5.333 -0.7983  0.3983 -0.3337
 8849SOL     OW35167   4.593   4.812   1.338 -0.1066  0.3508  0.0593
 8849SOL    HW235168   4.671   4.867   1.328 -0.6442  1.2287  0.4708
 8849SOL    HW335169   4.524   4.874   1.363 -0.8070 -0.4830  0.2415
 8849SOL    MW435170   4.594   4.828   1.340  0.4360 -0.6127 -0.1029
 8850SOL     OW35171   4.253   0.107   6.062 -0.1687  0.3100 -0.2398
 8850SOL    HW235172   4.209   0.114   5.978  0.2680  0.7404 -0.4384
 8850SOL    HW335173   4.347   0.106   6.041 -0.0752 -1.6472  0.0979
 8850SOL    MW435174   4.260   0.108   6.048 -0.3200 -0.1097  0.1933
 8851SOL     OW35175   5.395   4.779   0.748  0.4609  0.0835 -1.0566
 8851SOL    HW235176   5.426   4.714   0.686 -1.1873 -1.7438 -0.0835
 8851SOL    HW335177   5.302   4.789   0.728  0.2257  0.5562  0.1773
 8851SOL    MW435178   5.387   4.772   0.737 -0.3613 -0.0365 -0.2100
 8852SOL     OW35179   5.003   6.071   3.298  0.1928 -0.3050  0.6467
 8852SOL    HW235180   5.008   6.096   3.206  1.0642 -2.0442  0.1774
 8852SOL    HW335181   5.065   6.129   3.342  0.6879 -0.2712 -0.0702
 8852SOL    MW435182   5.012   6.082   3.291 -0.5618  0.2677 -0.1700
 8853SOL     OW35183   4.785   5.797   2.515 -0.3746  0.0206 -0.1490
 8853SOL    HW235184   4.788   5.891   2.536  1.4081 -0.1156  0.3417
 8853SOL    HW335185   4.870   5.763   2.543 -1.2435 -1.8963  0.3261
 8853SOL    MW435186   4.797   5.805   2.521  0.2796 -0.1297 -0.1828
 8854SOL     OW35187   2.678   4.097   3.713 -0.4139  0.1022 -0.2394
 8854SOL    HW235188   2.608   4.110   3.648 -1.3552 -0.8530  0.5420
 8854SOL    HW335189   2.704   4.185   3.738 -0.8617  0.4798 -1.0477
 8854SOL    MW435190   2.672   4.110   3.708  0.0578 -0.0948 -0.3408
 8855SOL     OW35191   2.126   2.809   5.871  1.1915  0.6088 -0.1258
 8855SOL    HW235192   2.048   2.799   5.816  1.2978  3.0044 -0.7944
 8855SOL    HW335193   2.092   2.839   5.955  1.3186  0.4694 -0.0232
 8855SOL    MW435194   2.111   2.812   5.875  0.0117  0.1217 -0.1225
 8856SOL     OW35195   1.073   2.359   1.353 -0.7820  0.3492  0.2832
 8856SOL    HW235196   0.989   2.324   1.383 -0.1159 -0.3850  1.3900
 8856SOL    HW335197   1.073   2.450   1.384 -0.6219 -0.0461  1.5198
 8856SOL    MW435198   1.062   2.367   1.361 -0.3509  0.1210 -0.1316
 8857SOL     OW35199   4.601   0.988   4.878  0.4033 -0.2215 -0.4354
 8857SOL    HW235200   4.624   1.036   4.958 -0.6717 -0.0719 -0.2104
 8857SOL    HW335201   4.652   0.907   4.883 -1.2145 -1.2148  1.4762
 8857SOL    MW435202   4.611   0.984   4.889  0.1313 -0.8314 -0.1870
 8858SOL     OW35203   4.649   1.816   5.737 -0.7014 -0.2729  0.0604
 8858SOL    HW235204   4.737   1.823   5.700 -0.3540 -0.8972  0.7316
 8858SOL    HW335205   4.591   1.844   5.666  0.0128 -0.2676 -0.5406
 8858SOL    MW435206   4.653   1.820   5.722 -0.3826 -0.9611  0.0656
 8859SOL     OW35207   3.131   2.899   4.830  0.2500 -0.1111 -0.4708
 8859SOL    HW235208   3.122   2.951   4.749 -2.0364 -0.1932 -0.3415
 8859SOL    HW335209   3.081   2.948   4.895  1.1034 -0.6460  0.6112
 8859SOL    MW435210   3.123   2.913   4.828 -0.2166  0.4392 -0.1085
 8860SOL     OW35211   1.946   4.555   2.486  0.1873 -0.5467 -0.2109
 8860SOL    HW235212   1.970   4.477   2.436 -0.5868 -1.9319  1.4784
 8860SOL    HW335213   2.020   4.569   2.546  0.2189 -0.1273 -0.3446
 8860SOL    MW435214   1.959   4.546   2.488  0.2245 -0.1072 -0.3434
 8861SOL     OW35215   3.842   5.994   1.016  0.1251  0.1764  0.9747
 8861SOL    HW235216   3.759   6.014   0.973  0.4291  0.1095  0.3623
 8861SOL    HW335217   3.817   5.974   1.107 -0.5582 -0.1265  0.7242
 8861SOL    MW435218   3.827   5.994   1.023 -0.2349  0.1642 -0.0568
 8862SOL     OW35219   0.966   3.118   6.097 -0.2986 -0.1176  0.1372
 8862SOL    HW235220   1.029   3.177   6.054 -0.9930  0.0845 -0.6292
 8862SOL    HW335221   1.012   3.034   6.102 -0.0540 -0.0354 -0.6315
 8862SOL    MW435222   0.981   3.115   6.092  0.3872 -0.3148  0.1439
 8863SOL     OW35223   4.406   5.906   3.952 -0.3689 -0.0457  0.3341
 8863SOL    HW235224   4.382   5.830   4.005  0.6753 -0.8392 -0.2858
 8863SOL    HW335225   4.328   5.925   3.900 -0.7689 -0.4364  0.7870
 8863SOL    MW435226   4.393   5.899   3.952  0.5098 -0.4938  0.1515
 8864SOL     OW35227   1.727   1.885   3.946  0.1594 -0.6248  0.5221
 8864SOL    HW235228   1.803   1.880   4.004 -0.6802 -1.8193  1.5768
 8864SOL    HW335229   1.717   1.796   3.911  1.2064  0.2456 -2.2928
 8864SOL    MW435230   1.736   1.873   3.949  0.0198  0.2502 -0.0787
 8865SOL     OW35231   0.186   5.134   3.773 -0.1150  0.2183  0.2949
 8865SOL    HW235232   0.280   5.125   3.787 -0.1444 -0.1023  0.2919
 8865SOL    HW335233   0.164   5.218   3.813 -0.1391 -0.5370  1.9213
 8865SOL    MW435234   0.195   5.144   3.780  0.1060 -0.5113 -0.0117
 8866SOL     OW35235   0.461   1.738   6.050 -0.0266 -0.6247 -0.2152
 8866SOL    HW235236   0.492   1.706   6.134  1.1140 -0.4503 -0.5488
 8866SOL    HW335237   0.516   1.693   5.985  0.0978  0.3242 -0.7916
 8866SOL    MW435238   0.472   1.728   6.052 -0.2071 -0.0796  0.0181
 8867SOL     OW35239   4.435   1.116   3.210  0.4449 -0.1277  0.9056
 8867SOL    HW235240   4.380   1.158   3.144  0.0608 -0.3378  1.0881
 8867SOL    HW335241   4.493   1.186   3.240  0.5531 -0.0062  0.4217
 8867SOL    MW435242   4.436   1.131   3.205 -0.3171 -0.0022 -0.5434
 8868SOL     OW35243   5.545   2.085   2.499  0.7932  0.6269 -0.3524
 8868SOL    HW235244   5.494   2.071   2.579 -0.2571 -0.3594 -1.1724
 8868SOL    HW335245   5.498   2.154   2.452  0.4255 -0.0069 -0.9228
 8868SOL    MW435246   5.532   2.092   2.504  0.3529 -0.0590  0.2745
 8869SOL     OW35247   0.883   4.988   2.795  0.2397 -0.2073  0.7002
 8869SOL    HW235248   0.859   5.017   2.707  2.3554 -0.1681  0.0864
 8869SOL    HW335249   0.928   4.904   2.781 -0.0766 -0.5810  1.8195
 8869SOL    MW435250   0.886   4.980   2.782 -0.4015  0.9837 -0.9106
 8870SOL     OW35251   2.992   0.586   0.434  0.0666  0.1065 -0.1952
 8870SOL    HW235252   2.927   0.623   0.374  1.2195  0.3525 -1.3507
 8870SOL    HW335253   3.024   0.508   0.389  0.8866  0.2444  0.1320
 8870SOL    MW435254   2.988   0.581   0.420  0.0639  0.2592  0.0508
 8871SOL     OW35255   3.116   5.991   4.246 -0.3665  0.0655  0.1732
 8871SOL    HW235256   3.059   6.024   4.177 -0.7443  0.2073  0.5533
 8871SOL    HW335257   3.077   6.021   4.328 -0.1892 -0.5077  0.4824
 8871SOL    MW435258   3.104   5.999   4.248  0.6178 -0.1177  0.1415
 8872SOL     OW35259   0.944   4.550   6.209  0.1970 -0.0726 -0.7583
 8872SOL    HW235260   0.932   4.644   6.199  1.2236  0.1268 -0.2178
 8872SOL    HW335261   0.855   4.514   6.207 -0.3600  1.1068  0.9796
 8872SOL    MW435262   0.931   4.558   6.207 -0.0746 -0.5181  0.1603
 8873SOL     OW35263   1.423   0.954   2.343 -0.3195  0.1566 -0.0382
 8873SOL    HW235264   1.334   0.970   2.311  0.0500 -0.8854 -1.7372
 8873SOL    HW335265   1.477   0.955   2.264  0.6705 -2.6042  0.4911
 8873SOL    MW435266   1.418   0.956   2.328  0.1892  0.4333  0.5745
 8874SOL     OW35267   2.522   5.054   5.182  0.6811 -0.5422  0.1679
 8874SOL    HW235268   2.615   5.053   5.206  1.0624 -1.0976 -1.2426
 8874SOL    HW335269   2.496   5.146   5.191  2.0764  0.1251 -1.8298
 8874SOL    MW435270   2.531   5.066   5.186  0.4147  0.7823  0.2025
 8875SOL     OW35271   6.051   0.822   6.107  0.0344  0.2605 -0.2259
 8875SOL    HW235272   6.027   0.759   6.175  0.2195  0.6981  0.2480
 8875SOL    HW335273   6.124   0.780   6.060  0.1797  0.1331  0.1110
 8875SOL    MW435274   6.058   0.808   6.110  0.0298 -0.1852 -0.4054
 8876SOL     OW35275   6.349   0.970   0.725 -0.1011 -0.6595 -0.2092
 8876SOL    HW235276   6.261   1.008   0.719  0.0260 -0.3702 -0.2643
 8876SOL    HW335277   6.392   0.996   0.643  1.3177  2.4719  1.3457
 8876SOL    MW435278   6.343   0.979   0.713 -0.4443  0.0810 -0.5694
 8877SOL     OW35279   0.122   6.174   5.693 -0.5653 -0.4575 -0.0437
 8877SOL    HW235280   0.122   6.116   5.617 -3.2896 -2.1049  1.0567
 8877SOL    HW335281   0.050   6.235   5.676  0.6955  1.1211 -0.0415
 8877SOL    MW435282   0.113   6.174   5.681  0.4884  0.1548  0.1558
 8878SOL     OW35283   1.188   4.828   3.400  0.5295  0.0012  0.6933
 8878SOL    HW235284   1.169   4.916   3.431 -0.9560  0.0632 -0.2447
 8878SOL    HW335285   1.175   4.772   3.476  1.5725  0.5801  1.3158
 8878SOL    MW435286   1.183   4.832   3.414  0.2155  0.0044 -0.4631
 8879SOL     OW35287   0.152   1.431   5.454 -0.7642 -0.1437  0.2544
 8879SOL    HW235288   0.061   1.446   5.482 -0.3997 -0.5009  1.6880
 8879SOL    HW335289   0.153   1.340   5.425 -0.3625 -0.9007  2.4773
 8879SOL    MW435290   0.140   1.421   5.454  0.4468  0.1224  0.4968
 8880SOL     OW35291   0.350   1.276   4.821  0.4736 -0.0907  0.4441
 8880SOL    HW235292   0.271   1.246   4.777  0.3074  0.9267  0.0281
 8880SOL    HW335293   0.335   1.256   4.914 -1.1596  1.8626  0.6746
 8880SOL    MW435294   0.338   1.269   4.828  0.1615  0.0407  0.7466
 8881NA      NA35295   4.087   4.648   6.411 -0.3157 -0.0248  0.3848
 8882NA      NA35296   6.419   4.709   4.843  0.0208  0.0556 -0.5359
 8883NA      NA35297   5.253   2.300   4.146 -0.4339 -0.4044  0.2724
 8884NA      NA35298   1.314   0.820   2.522 -0.1726  0.6027  0.4514
 8885NA      NA35299   0.141   0.495   1.945 -0.4920 -0.1404  0.1946
 8886NA      NA35300   1.217   0.059   0.642 -0.3818  0.4189 -0.3162
 8887NA      NA35301   2.266   3.511   4.166  0.1531  0.5309 -0.2126
   6.42840   6.42840   6.42840
